LAMMPS data file
# Generated by Playmol on 25-Sep-2023 at 10:27:31

2 atom types
2 bond types
2 angle types
2 dihedral types

2400 atoms
2400 bonds
3600 angles
3600 dihedrals

-15.4663181 15.4663181 xlo xhi
-15.4663181 15.4663181 ylo yhi
-15.4663181 15.4663181 zlo zhi

Masses

1 12.011 # C
2 1.00784 # H

# Elements: C? H?

Pair Coeffs

1 0.0610 3.60 # C
2 0.0506 2.36 # H

Bond Coeffs

1 1.392 # C C
2 1.08 # C H

Angle Coeffs

1 120 # C C C
2 120 # C C H

Dihedral Coeffs

1 0 # C C C C
2 180 # C C C H

Atoms

1 1 1 -0.095 -12.0651369 5.65827084 -0.157443002 # C1
2 1 1 -0.095 -13.2799273 4.95691109 -0.157443002 # C2
3 1 1 -0.095 -13.2799273 3.55419111 -0.157443002 # C3
4 1 1 -0.095 -12.0651369 2.85283089 -0.157443002 # C4
5 1 1 -0.095 -10.8503466 3.55419111 -0.157443002 # C5
6 1 1 -0.095 -10.8503466 4.95691109 -0.157443002 # C6
7 1 2 0.095 -12.0651369 6.74584103 -0.157443002 # H1
8 1 2 0.095 -14.2217970 5.50070095 -0.157443002 # H2
9 1 2 0.095 -14.2217970 3.01040101 -0.157443002 # H3
10 1 2 0.095 -12.0651369 1.76526105 -0.157443002 # H4
11 1 2 0.095 -9.90847683 3.01040101 -0.157443002 # H5
12 1 2 0.095 -9.90847683 5.50070095 -0.157443002 # H6
13 2 1 -0.095 9.64994240 -10.3237133 14.2171106 # C1
14 2 1 -0.095 8.43515205 -11.0250731 14.2171106 # C2
15 2 1 -0.095 8.43515205 -12.4277925 14.2171106 # C3
16 2 1 -0.095 9.64994240 -13.1291533 14.2171106 # C4
17 2 1 -0.095 10.8647318 -12.4277925 14.2171106 # C5
18 2 1 -0.095 10.8647318 -11.0250731 14.2171106 # C6
19 2 2 0.095 9.64994240 -9.23614311 14.2171106 # H1
20 2 2 0.095 7.49328184 -10.4812832 14.2171106 # H2
21 2 2 0.095 7.49328184 -12.9715834 14.2171106 # H3
22 2 2 0.095 9.64994240 -14.2167234 14.2171106 # H4
23 2 2 0.095 11.8066015 -12.9715834 14.2171106 # H5
24 2 2 0.095 11.8066015 -10.4812832 14.2171106 # H6
25 3 1 -0.095 -5.11381912 3.16376305 -11.7851896 # C1
26 3 1 -0.095 -6.32860899 2.46240306 -11.7851896 # C2
27 3 1 -0.095 -6.32860899 1.05968297 -11.7851896 # C3
28 3 1 -0.095 -5.11381912 0.358323008 -11.7851896 # C4
29 3 1 -0.095 -3.89902902 1.05968297 -11.7851896 # C5
30 3 1 -0.095 -3.89902902 2.46240306 -11.7851896 # C6
31 3 2 0.095 -5.11381912 4.25133324 -11.7851896 # H1
32 3 2 0.095 -7.27047920 3.00619292 -11.7851896 # H2
33 3 2 0.095 -7.27047920 0.515892982 -11.7851896 # H3
34 3 2 0.095 -5.11381912 -0.729246974 -11.7851896 # H4
35 3 2 0.095 -2.95715904 0.515892982 -11.7851896 # H5
36 3 2 0.095 -2.95715904 3.00619292 -11.7851896 # H6
37 4 1 -0.095 5.30505991 7.70137310 11.7254572 # C1
38 4 1 -0.095 4.09027004 7.00001287 11.7254572 # C2
39 4 1 -0.095 4.09027004 5.59729290 11.7254572 # C3
40 4 1 -0.095 5.30505991 4.89593315 11.7254572 # C4
41 4 1 -0.095 6.51984978 5.59729290 11.7254572 # C5
42 4 1 -0.095 6.51984978 7.00001287 11.7254572 # C6
43 4 2 0.095 5.30505991 8.78894329 11.7254572 # H1
44 4 2 0.095 3.14840007 7.54380322 11.7254572 # H2
45 4 2 0.095 3.14840007 5.05350304 11.7254572 # H3
46 4 2 0.095 5.30505991 3.80836296 11.7254572 # H4
47 4 2 0.095 7.46171999 5.05350304 11.7254572 # H5
48 4 2 0.095 7.46171999 7.54380322 11.7254572 # H6
49 5 1 -0.095 -3.04990292 -10.3042421 -11.6850100 # C1
50 5 1 -0.095 -4.26469278 -11.0056019 -11.6850100 # C2
51 5 1 -0.095 -4.26469278 -12.4083223 -11.6850100 # C3
52 5 1 -0.095 -3.04990292 -13.1096821 -11.6850100 # C4
53 5 1 -0.095 -1.83511305 -12.4083223 -11.6850100 # C5
54 5 1 -0.095 -1.83511305 -11.0056019 -11.6850100 # C6
55 5 2 0.095 -3.04990292 -9.21667194 -11.6850100 # H1
56 5 2 0.095 -5.20656300 -10.4618120 -11.6850100 # H2
57 5 2 0.095 -5.20656300 -12.9521122 -11.6850100 # H3
58 5 2 0.095 -3.04990292 -14.1972523 -11.6850100 # H4
59 5 2 0.095 -0.893243015 -12.9521122 -11.6850100 # H5
60 5 2 0.095 -0.893243015 -10.4618120 -11.6850100 # H6
61 6 1 -0.095 10.0990353 -9.58312416 -0.504737020 # C1
62 6 1 -0.095 8.88424492 -10.2844839 -0.504737020 # C2
63 6 1 -0.095 8.88424492 -11.6872044 -0.504737020 # C3
64 6 1 -0.095 10.0990353 -12.3885641 -0.504737020 # C4
65 6 1 -0.095 11.3138247 -11.6872044 -0.504737020 # C5
66 6 1 -0.095 11.3138247 -10.2844839 -0.504737020 # C6
67 6 2 0.095 10.0990353 -8.49555397 -0.504737020 # H1
68 6 2 0.095 7.94237518 -9.74069405 -0.504737020 # H2
69 6 2 0.095 7.94237518 -12.2309942 -0.504737020 # H3
70 6 2 0.095 10.0990353 -13.4761343 -0.504737020 # H4
71 6 2 0.095 12.2556953 -12.2309942 -0.504737020 # H5
72 6 2 0.095 12.2556953 -9.74069405 -0.504737020 # H6
73 7 1 -0.095 -12.0576563 2.25426507 -8.77643681 # C1
74 7 1 -0.095 -13.2724457 1.55290496 -8.77643681 # C2
75 7 1 -0.095 -13.2724457 0.150185004 -8.77643681 # C3
76 7 1 -0.095 -12.0576563 -0.551174998 -8.77643681 # C4
77 7 1 -0.095 -10.8428659 0.150185004 -8.77643681 # C5
78 7 1 -0.095 -10.8428659 1.55290496 -8.77643681 # C6
79 7 2 0.095 -12.0576563 3.34183502 -8.77643681 # H1
80 7 2 0.095 -14.2143164 2.09669495 -8.77643681 # H2
81 7 2 0.095 -14.2143164 -0.393604994 -8.77643681 # H3
82 7 2 0.095 -12.0576563 -1.63874495 -8.77643681 # H4
83 7 2 0.095 -9.90099525 -0.393604994 -8.77643681 # H5
84 7 2 0.095 -9.90099525 2.09669495 -8.77643681 # H6
85 8 1 -0.095 3.06225300 0.593985975 -0.257025003 # C1
86 8 1 -0.095 1.84746301 -0.107373998 -0.257025003 # C2
87 8 1 -0.095 1.84746301 -1.51009405 -0.257025003 # C3
88 8 1 -0.095 3.06225300 -2.21145391 -0.257025003 # C4
89 8 1 -0.095 4.27704287 -1.51009405 -0.257025003 # C5
90 8 1 -0.095 4.27704287 -0.107373998 -0.257025003 # C6
91 8 2 0.095 3.06225300 1.68155599 -0.257025003 # H1
92 8 2 0.095 0.905592978 0.436416000 -0.257025003 # H2
93 8 2 0.095 0.905592978 -2.05388403 -0.257025003 # H3
94 8 2 0.095 3.06225300 -3.29902411 -0.257025003 # H4
95 8 2 0.095 5.21891308 -2.05388403 -0.257025003 # H5
96 8 2 0.095 5.21891308 0.436416000 -0.257025003 # H6
97 9 1 -0.095 -3.71222210 1.30745602 6.29804420 # C1
98 9 1 -0.095 -4.92701197 0.606096029 6.29804420 # C2
99 9 1 -0.095 -4.92701197 -0.796624005 6.29804420 # C3
100 9 1 -0.095 -3.71222210 -1.49798405 6.29804420 # C4
101 9 1 -0.095 -2.49743199 -0.796624005 6.29804420 # C5
102 9 1 -0.095 -2.49743199 0.606096029 6.29804420 # C6
103 9 2 0.095 -3.71222210 2.39502597 6.29804420 # H1
104 9 2 0.095 -5.86888218 1.14988601 6.29804420 # H2
105 9 2 0.095 -5.86888218 -1.34041405 6.29804420 # H3
106 9 2 0.095 -3.71222210 -2.58555388 6.29804420 # H4
107 9 2 0.095 -1.55556095 -1.34041405 6.29804420 # H5
108 9 2 0.095 -1.55556095 1.14988601 6.29804420 # H6
109 10 1 -0.095 -12.0653915 -4.02264690 -0.266862005 # C1
110 10 1 -0.095 -13.2801819 -4.72400713 -0.266862005 # C2
111 10 1 -0.095 -13.2801819 -6.12672710 -0.266862005 # C3
112 10 1 -0.095 -12.0653915 -6.82808685 -0.266862005 # C4
113 10 1 -0.095 -10.8506031 -6.12672710 -0.266862005 # C5
114 10 1 -0.095 -10.8506031 -4.72400713 -0.266862005 # C6
115 10 2 0.095 -12.0653915 -2.93507695 -0.266862005 # H1
116 10 2 0.095 -14.2220526 -4.18021679 -0.266862005 # H2
117 10 2 0.095 -14.2220526 -6.67051697 -0.266862005 # H3
118 10 2 0.095 -12.0653915 -7.91565704 -0.266862005 # H4
119 10 2 0.095 -9.90873241 -6.67051697 -0.266862005 # H5
120 10 2 0.095 -9.90873241 -4.18021679 -0.266862005 # H6
121 11 1 -0.095 -2.94331408 1.36971998 1.41146195 # C1
122 11 1 -0.095 -4.15810394 0.668359995 1.41146195 # C2
123 11 1 -0.095 -4.15810394 -0.734359980 1.41146195 # C3
124 11 1 -0.095 -2.94331408 -1.43571997 1.41146195 # C4
125 11 1 -0.095 -1.72852397 -0.734359980 1.41146195 # C5
126 11 1 -0.095 -1.72852397 0.668359995 1.41146195 # C6
127 11 2 0.095 -2.94331408 2.45728993 1.41146195 # H1
128 11 2 0.095 -5.09997416 1.21214998 1.41146195 # H2
129 11 2 0.095 -5.09997416 -1.27814996 1.41146195 # H3
130 11 2 0.095 -2.94331408 -2.52328992 1.41146195 # H4
131 11 2 0.095 -0.786653996 -1.27814996 1.41146195 # H5
132 11 2 0.095 -0.786653996 1.21214998 1.41146195 # H6
133 12 1 -0.095 -9.89614677 -4.08987713 11.8027267 # C1
134 12 1 -0.095 -11.1109371 -4.79123688 11.8027267 # C2
135 12 1 -0.095 -11.1109371 -6.19395685 11.8027267 # C3
136 12 1 -0.095 -9.89614677 -6.89531708 11.8027267 # C4
137 12 1 -0.095 -8.68135738 -6.19395685 11.8027267 # C5
138 12 1 -0.095 -8.68135738 -4.79123688 11.8027267 # C6
139 12 2 0.095 -9.89614677 -3.00230694 11.8027267 # H1
140 12 2 0.095 -12.0528069 -4.24744701 11.8027267 # H2
141 12 2 0.095 -12.0528069 -6.73774719 11.8027267 # H3
142 12 2 0.095 -9.89614677 -7.98288679 11.8027267 # H4
143 12 2 0.095 -7.73948717 -6.73774719 11.8027267 # H5
144 12 2 0.095 -7.73948717 -4.24744701 11.8027267 # H6
145 13 1 -0.095 4.34753323 0.596855998 2.15885806 # C1
146 13 1 -0.095 3.13274288 -0.104503997 2.15885806 # C2
147 13 1 -0.095 3.13274288 -1.50722396 2.15885806 # C3
148 13 1 -0.095 4.34753323 -2.20858407 2.15885806 # C4
149 13 1 -0.095 5.56232309 -1.50722396 2.15885806 # C5
150 13 1 -0.095 5.56232309 -0.104503997 2.15885806 # C6
151 13 2 0.095 4.34753323 1.68442595 2.15885806 # H1
152 13 2 0.095 2.19087291 0.439285994 2.15885806 # H2
153 13 2 0.095 2.19087291 -2.05101395 2.15885806 # H3
154 13 2 0.095 4.34753323 -3.29615402 2.15885806 # H4
155 13 2 0.095 6.50419283 -2.05101395 2.15885806 # H5
156 13 2 0.095 6.50419283 0.439285994 2.15885806 # H6
157 14 1 -0.095 6.15140104 -4.38184690 -2.40863895 # C1
158 14 1 -0.095 4.93661118 -5.08320713 -2.40863895 # C2
159 14 1 -0.095 4.93661118 -6.48592710 -2.40863895 # C3
160 14 1 -0.095 6.15140104 -7.18728685 -2.40863895 # C4
161 14 1 -0.095 7.36619091 -6.48592710 -2.40863895 # C5
162 14 1 -0.095 7.36619091 -5.08320713 -2.40863895 # C6
163 14 2 0.095 6.15140104 -3.29427695 -2.40863895 # H1
164 14 2 0.095 3.99474096 -4.53941679 -2.40863895 # H2
165 14 2 0.095 3.99474096 -7.02971697 -2.40863895 # H3
166 14 2 0.095 6.15140104 -8.27485657 -2.40863895 # H4
167 14 2 0.095 8.30806065 -7.02971697 -2.40863895 # H5
168 14 2 0.095 8.30806065 -4.53941679 -2.40863895 # H6
169 15 1 -0.095 12.0169010 -4.28751898 -9.32230377 # C1
170 15 1 -0.095 10.8021107 -4.98887920 -9.32230377 # C2
171 15 1 -0.095 10.8021107 -6.39159918 -9.32230377 # C3
172 15 1 -0.095 12.0169010 -7.09295893 -9.32230377 # C4
173 15 1 -0.095 13.2316914 -6.39159918 -9.32230377 # C5
174 15 1 -0.095 13.2316914 -4.98887920 -9.32230377 # C6
175 15 2 0.095 12.0169010 -3.19994903 -9.32230377 # H1
176 15 2 0.095 9.86024094 -4.44508886 -9.32230377 # H2
177 15 2 0.095 9.86024094 -6.93538904 -9.32230377 # H3
178 15 2 0.095 12.0169010 -8.18052864 -9.32230377 # H4
179 15 2 0.095 14.1735611 -6.93538904 -9.32230377 # H5
180 15 2 0.095 14.1735611 -4.44508886 -9.32230377 # H6
181 16 1 -0.095 -6.74515200 -4.57669115 -9.86005783 # C1
182 16 1 -0.095 -7.95994186 -5.27805090 -9.86005783 # C2
183 16 1 -0.095 -7.95994186 -6.68077087 -9.86005783 # C3
184 16 1 -0.095 -6.74515200 -7.38213110 -9.86005783 # C4
185 16 1 -0.095 -5.53036213 -6.68077087 -9.86005783 # C5
186 16 1 -0.095 -5.53036213 -5.27805090 -9.86005783 # C6
187 16 2 0.095 -6.74515200 -3.48912096 -9.86005783 # H1
188 16 2 0.095 -8.90181160 -4.73426104 -9.86005783 # H2
189 16 2 0.095 -8.90181160 -7.22456121 -9.86005783 # H3
190 16 2 0.095 -6.74515200 -8.46970081 -9.86005783 # H4
191 16 2 0.095 -4.58849192 -7.22456121 -9.86005783 # H5
192 16 2 0.095 -4.58849192 -4.73426104 -9.86005783 # H6
193 17 1 -0.095 12.0624304 7.43495512 6.80098295 # C1
194 17 1 -0.095 10.8476400 6.73359489 6.80098295 # C2
195 17 1 -0.095 10.8476400 5.33087492 6.80098295 # C3
196 17 1 -0.095 12.0624304 4.62951517 6.80098295 # C4
197 17 1 -0.095 13.2772198 5.33087492 6.80098295 # C5
198 17 1 -0.095 13.2772198 6.73359489 6.80098295 # C6
199 17 2 0.095 12.0624304 8.52252483 6.80098295 # H1
200 17 2 0.095 9.90577030 7.27738523 6.80098295 # H2
201 17 2 0.095 9.90577030 4.78708506 6.80098295 # H3
202 17 2 0.095 12.0624304 3.54194498 6.80098295 # H4
203 17 2 0.095 14.2190905 4.78708506 6.80098295 # H5
204 17 2 0.095 14.2190905 7.27738523 6.80098295 # H6
205 18 1 -0.095 -12.0597353 3.21605396 -14.2159967 # C1
206 18 1 -0.095 -13.2745247 2.51469398 -14.2159967 # C2
207 18 1 -0.095 -13.2745247 1.11197400 -14.2159967 # C3
208 18 1 -0.095 -12.0597353 0.410614014 -14.2159967 # C4
209 18 1 -0.095 -10.8449450 1.11197400 -14.2159967 # C5
210 18 1 -0.095 -10.8449450 2.51469398 -14.2159967 # C6
211 18 2 0.095 -12.0597353 4.30362415 -14.2159967 # H1
212 18 2 0.095 -14.2163954 3.05848408 -14.2159967 # H2
213 18 2 0.095 -14.2163954 0.568184018 -14.2159967 # H3
214 18 2 0.095 -12.0597353 -0.676954985 -14.2159967 # H4
215 18 2 0.095 -9.90307426 0.568184018 -14.2159967 # H5
216 18 2 0.095 -9.90307426 3.05848408 -14.2159967 # H6
217 19 1 -0.095 -12.0612993 -10.3251657 11.7757816 # C1
218 19 1 -0.095 -13.2760887 -11.0265265 11.7757816 # C2
219 19 1 -0.095 -13.2760887 -12.4292459 11.7757816 # C3
220 19 1 -0.095 -12.0612993 -13.1306057 11.7757816 # C4
221 19 1 -0.095 -10.8465090 -12.4292459 11.7757816 # C5
222 19 1 -0.095 -10.8465090 -11.0265265 11.7757816 # C6
223 19 2 0.095 -12.0612993 -9.23759556 11.7757816 # H1
224 19 2 0.095 -14.2179594 -10.4827356 11.7757816 # H2
225 19 2 0.095 -14.2179594 -12.9730358 11.7757816 # H3
226 19 2 0.095 -12.0612993 -14.2181759 11.7757816 # H4
227 19 2 0.095 -9.90463924 -12.9730358 11.7757816 # H5
228 19 2 0.095 -9.90463924 -10.4827356 11.7757816 # H6
229 20 1 -0.095 -5.28287411 -10.2248640 -14.2120790 # C1
230 20 1 -0.095 -6.49766397 -10.9262238 -14.2120790 # C2
231 20 1 -0.095 -6.49766397 -12.3289442 -14.2120790 # C3
232 20 1 -0.095 -5.28287411 -13.0303040 -14.2120790 # C4
233 20 1 -0.095 -4.06808376 -12.3289442 -14.2120790 # C5
234 20 1 -0.095 -4.06808376 -10.9262238 -14.2120790 # C6
235 20 2 0.095 -5.28287411 -9.13729382 -14.2120790 # H1
236 20 2 0.095 -7.43953419 -10.3824339 -14.2120790 # H2
237 20 2 0.095 -7.43953419 -12.8727341 -14.2120790 # H3
238 20 2 0.095 -5.28287411 -14.1178741 -14.2120790 # H4
239 20 2 0.095 -3.12621403 -12.8727341 -14.2120790 # H5
240 20 2 0.095 -3.12621403 -10.3824339 -14.2120790 # H6
241 21 1 -0.095 8.77381802 -10.2944250 -9.38659477 # C1
242 21 1 -0.095 7.55902815 -10.9957848 -9.38659477 # C2
243 21 1 -0.095 7.55902815 -12.3985052 -9.38659477 # C3
244 21 1 -0.095 8.77381802 -13.0998650 -9.38659477 # C4
245 21 1 -0.095 9.98860836 -12.3985052 -9.38659477 # C5
246 21 1 -0.095 9.98860836 -10.9957848 -9.38659477 # C6
247 21 2 0.095 8.77381802 -9.20685482 -9.38659477 # H1
248 21 2 0.095 6.61715698 -10.4519949 -9.38659477 # H2
249 21 2 0.095 6.61715698 -12.9422951 -9.38659477 # H3
250 21 2 0.095 8.77381802 -14.1874352 -9.38659477 # H4
251 21 2 0.095 10.9304781 -12.9422951 -9.38659477 # H5
252 21 2 0.095 10.9304781 -10.4519949 -9.38659477 # H6
253 22 1 -0.095 12.0617876 -2.88227296 -4.05703688 # C1
254 22 1 -0.095 10.8469982 -3.58363295 -4.05703688 # C2
255 22 1 -0.095 10.8469982 -4.98635292 -4.05703688 # C3
256 22 1 -0.095 12.0617876 -5.68771315 -4.05703688 # C4
257 22 1 -0.095 13.2765779 -4.98635292 -4.05703688 # C5
258 22 1 -0.095 13.2765779 -3.58363295 -4.05703688 # C6
259 22 2 0.095 12.0617876 -1.79470301 -4.05703688 # H1
260 22 2 0.095 9.90512753 -3.03984308 -4.05703688 # H2
261 22 2 0.095 9.90512753 -5.53014278 -4.05703688 # H3
262 22 2 0.095 12.0617876 -6.77528286 -4.05703688 # H4
263 22 2 0.095 14.2184477 -5.53014278 -4.05703688 # H5
264 22 2 0.095 14.2184477 -3.03984308 -4.05703688 # H6
265 23 1 -0.095 -1.98670495 -9.37955475 -5.98857117 # C1
266 23 1 -0.095 -3.20149493 -10.0809155 -5.98857117 # C2
267 23 1 -0.095 -3.20149493 -11.4836349 -5.98857117 # C3
268 23 1 -0.095 -1.98670495 -12.1849947 -5.98857117 # C4
269 23 1 -0.095 -0.771915019 -11.4836349 -5.98857117 # C5
270 23 1 -0.095 -0.771915019 -10.0809155 -5.98857117 # C6
271 23 2 0.095 -1.98670495 -8.29198456 -5.98857117 # H1
272 23 2 0.095 -4.14336491 -9.53712463 -5.98857117 # H2
273 23 2 0.095 -4.14336491 -12.0274248 -5.98857117 # H3
274 23 2 0.095 -1.98670495 -13.2725649 -5.98857117 # H4
275 23 2 0.095 0.169955000 -12.0274248 -5.98857117 # H5
276 23 2 0.095 0.169955000 -9.53712463 -5.98857117 # H6
277 24 1 -0.095 -8.50161266 -4.16496086 14.2163086 # C1
278 24 1 -0.095 -9.71640301 -4.86632109 14.2163086 # C2
279 24 1 -0.095 -9.71640301 -6.26904106 14.2163086 # C3
280 24 1 -0.095 -8.50161266 -6.97040081 14.2163086 # C4
281 24 1 -0.095 -7.28682280 -6.26904106 14.2163086 # C5
282 24 1 -0.095 -7.28682280 -4.86632109 14.2163086 # C6
283 24 2 0.095 -8.50161266 -3.07739091 14.2163086 # H1
284 24 2 0.095 -10.6582727 -4.32253122 14.2163086 # H2
285 24 2 0.095 -10.6582727 -6.81283092 14.2163086 # H3
286 24 2 0.095 -8.50161266 -8.05797100 14.2163086 # H4
287 24 2 0.095 -6.34495306 -6.81283092 14.2163086 # H5
288 24 2 0.095 -6.34495306 -4.32253122 14.2163086 # H6
289 25 1 -0.095 -4.54448223 1.65935504 -9.35296917 # C1
290 25 1 -0.095 -5.75927210 0.957994998 -9.35296917 # C2
291 25 1 -0.095 -5.75927210 -0.444725007 -9.35296917 # C3
292 25 1 -0.095 -4.54448223 -1.14608502 -9.35296917 # C4
293 25 1 -0.095 -3.32969189 -0.444725007 -9.35296917 # C5
294 25 1 -0.095 -3.32969189 0.957994998 -9.35296917 # C6
295 25 2 0.095 -4.54448223 2.74692512 -9.35296917 # H1
296 25 2 0.095 -6.70114183 1.50178504 -9.35296917 # H2
297 25 2 0.095 -6.70114183 -0.988515019 -9.35296917 # H3
298 25 2 0.095 -4.54448223 -2.23365498 -9.35296917 # H4
299 25 2 0.095 -2.38782191 -0.988515019 -9.35296917 # H5
300 25 2 0.095 -2.38782191 1.50178504 -9.35296917 # H6
301 26 1 -0.095 -0.931388021 6.84702015 4.38417387 # C1
302 26 1 -0.095 -2.14617801 6.14565992 4.38417387 # C2
303 26 1 -0.095 -2.14617801 4.74293995 4.38417387 # C3
304 26 1 -0.095 -0.931388021 4.04158020 4.38417387 # C4
305 26 1 -0.095 0.283401996 4.74293995 4.38417387 # C5
306 26 1 -0.095 0.283401996 6.14565992 4.38417387 # C6
307 26 2 0.095 -0.931388021 7.93458986 4.38417387 # H1
308 26 2 0.095 -3.08804798 6.68944979 4.38417387 # H2
309 26 2 0.095 -3.08804798 4.19915009 4.38417387 # H3
310 26 2 0.095 -0.931388021 2.95401001 4.38417387 # H4
311 26 2 0.095 1.22527206 4.19915009 4.38417387 # H5
312 26 2 0.095 1.22527206 6.68944979 4.38417387 # H6
313 27 1 -0.095 12.0597897 1.37071395 2.39996290 # C1
314 27 1 -0.095 10.8450003 0.669354022 2.39996290 # C2
315 27 1 -0.095 10.8450003 -0.733366013 2.39996290 # C3
316 27 1 -0.095 12.0597897 -1.43472600 2.39996290 # C4
317 27 1 -0.095 13.2745800 -0.733366013 2.39996290 # C5
318 27 1 -0.095 13.2745800 0.669354022 2.39996290 # C6
319 27 2 0.095 12.0597897 2.45828390 2.39996290 # H1
320 27 2 0.095 9.90312958 1.21314394 2.39996290 # H2
321 27 2 0.095 9.90312958 -1.27715600 2.39996290 # H3
322 27 2 0.095 12.0597897 -2.52229595 2.39996290 # H4
323 27 2 0.095 14.2164497 -1.27715600 2.39996290 # H5
324 27 2 0.095 14.2164497 1.21314394 2.39996290 # H6
325 28 1 -0.095 5.40987206 -3.07078004 -13.8537779 # C1
326 28 1 -0.095 4.19508219 -3.77214003 -13.8537779 # C2
327 28 1 -0.095 4.19508219 -5.17486000 -13.8537779 # C3
328 28 1 -0.095 5.40987206 -5.87622023 -13.8537779 # C4
329 28 1 -0.095 6.62466192 -5.17486000 -13.8537779 # C5
330 28 1 -0.095 6.62466192 -3.77214003 -13.8537779 # C6
331 28 2 0.095 5.40987206 -1.98320997 -13.8537779 # H1
332 28 2 0.095 3.25321198 -3.22834992 -13.8537779 # H2
333 28 2 0.095 3.25321198 -5.71864986 -13.8537779 # H3
334 28 2 0.095 5.40987206 -6.96378994 -13.8537779 # H4
335 28 2 0.095 7.56653214 -5.71864986 -13.8537779 # H5
336 28 2 0.095 7.56653214 -3.22834992 -13.8537779 # H6
337 29 1 -0.095 10.7879629 -10.3256207 -5.40648413 # C1
338 29 1 -0.095 9.57317257 -11.0269814 -5.40648413 # C2
339 29 1 -0.095 9.57317257 -12.4297009 -5.40648413 # C3
340 29 1 -0.095 10.7879629 -13.1310606 -5.40648413 # C4
341 29 1 -0.095 12.0027533 -12.4297009 -5.40648413 # C5
342 29 1 -0.095 12.0027533 -11.0269814 -5.40648413 # C6
343 29 2 0.095 10.7879629 -9.23805141 -5.40648413 # H1
344 29 2 0.095 8.63130283 -10.4831905 -5.40648413 # H2
345 29 2 0.095 8.63130283 -12.9734907 -5.40648413 # H3
346 29 2 0.095 10.7879629 -14.2186308 -5.40648413 # H4
347 29 2 0.095 12.9446239 -12.9734907 -5.40648413 # H5
348 29 2 0.095 12.9446239 -10.4831905 -5.40648413 # H6
349 30 1 -0.095 -11.4687376 12.0964785 14.2226343 # C1
350 30 1 -0.095 -12.6835279 11.3951178 14.2226343 # C2
351 30 1 -0.095 -12.6835279 9.99239826 14.2226343 # C3
352 30 1 -0.095 -11.4687376 9.29103756 14.2226343 # C4
353 30 1 -0.095 -10.2539482 9.99239826 14.2226343 # C5
354 30 1 -0.095 -10.2539482 11.3951178 14.2226343 # C6
355 30 2 0.095 -11.4687376 13.1840477 14.2226343 # H1
356 30 2 0.095 -13.6253977 11.9389076 14.2226343 # H2
357 30 2 0.095 -13.6253977 9.44860840 14.2226343 # H3
358 30 2 0.095 -11.4687376 8.20346832 14.2226343 # H4
359 30 2 0.095 -9.31207848 9.44860840 14.2226343 # H5
360 30 2 0.095 -9.31207848 11.9389076 14.2226343 # H6
361 31 1 -0.095 1.83922195 13.1290340 5.46998215 # C1
362 31 1 -0.095 0.624432027 12.4276743 5.46998215 # C2
363 31 1 -0.095 0.624432027 11.0249538 5.46998215 # C3
364 31 1 -0.095 1.83922195 10.3235941 5.46998215 # C4
365 31 1 -0.095 3.05401206 11.0249538 5.46998215 # C5
366 31 1 -0.095 3.05401206 12.4276743 5.46998215 # C6
367 31 2 0.095 1.83922195 14.2166033 5.46998215 # H1
368 31 2 0.095 -0.317438006 12.9714642 5.46998215 # H2
369 31 2 0.095 -0.317438006 10.4811640 5.46998215 # H3
370 31 2 0.095 1.83922195 9.23602390 5.46998215 # H4
371 31 2 0.095 3.99588203 10.4811640 5.46998215 # H5
372 31 2 0.095 3.99588203 12.9714642 5.46998215 # H6
373 32 1 -0.095 -5.17701387 13.0408792 10.2542372 # C1
374 32 1 -0.095 -6.39180422 12.3395185 10.2542372 # C2
375 32 1 -0.095 -6.39180422 10.9367990 10.2542372 # C3
376 32 1 -0.095 -5.17701387 10.2354393 10.2542372 # C4
377 32 1 -0.095 -3.96222401 10.9367990 10.2542372 # C5
378 32 1 -0.095 -3.96222401 12.3395185 10.2542372 # C6
379 32 2 0.095 -5.17701387 14.1284494 10.2542372 # H1
380 32 2 0.095 -7.33367395 12.8833094 10.2542372 # H2
381 32 2 0.095 -7.33367395 10.3930092 10.2542372 # H3
382 32 2 0.095 -5.17701387 9.14786911 10.2542372 # H4
383 32 2 0.095 -3.02035403 10.3930092 10.2542372 # H5
384 32 2 0.095 -3.02035403 12.8833094 10.2542372 # H6
385 33 1 -0.095 10.7403803 13.1290579 -6.98607588 # C1
386 33 1 -0.095 9.52558994 12.4276981 -6.98607588 # C2
387 33 1 -0.095 9.52558994 11.0249777 -6.98607588 # C3
388 33 1 -0.095 10.7403803 10.3236179 -6.98607588 # C4
389 33 1 -0.095 11.9551697 11.0249777 -6.98607588 # C5
390 33 1 -0.095 11.9551697 12.4276981 -6.98607588 # C6
391 33 2 0.095 10.7403803 14.2166281 -6.98607588 # H1
392 33 2 0.095 8.58372021 12.9714880 -6.98607588 # H2
393 33 2 0.095 8.58372021 10.4811878 -6.98607588 # H3
394 33 2 0.095 10.7403803 9.23604774 -6.98607588 # H4
395 33 2 0.095 12.8970404 10.4811878 -6.98607588 # H5
396 33 2 0.095 12.8970404 12.9714880 -6.98607588 # H6
397 34 1 -0.095 -4.08307695 13.0948706 -9.57511711 # C1
398 34 1 -0.095 -5.29786682 12.3935108 -9.57511711 # C2
399 34 1 -0.095 -5.29786682 10.9907913 -9.57511711 # C3
400 34 1 -0.095 -4.08307695 10.2894306 -9.57511711 # C4
401 34 1 -0.095 -2.86828709 10.9907913 -9.57511711 # C5
402 34 1 -0.095 -2.86828709 12.3935108 -9.57511711 # C6
403 34 2 0.095 -4.08307695 14.1824408 -9.57511711 # H1
404 34 2 0.095 -6.23973703 12.9373007 -9.57511711 # H2
405 34 2 0.095 -6.23973703 10.4470015 -9.57511711 # H3
406 34 2 0.095 -4.08307695 9.20186138 -9.57511711 # H4
407 34 2 0.095 -1.92641699 10.4470015 -9.57511711 # H5
408 34 2 0.095 -1.92641699 12.9373007 -9.57511711 # H6
409 35 1 -0.095 3.90623093 2.24265003 -9.29862022 # C1
410 35 1 -0.095 2.69144106 1.54129004 -9.29862022 # C2
411 35 1 -0.095 2.69144106 0.138569996 -9.29862022 # C3
412 35 1 -0.095 3.90623093 -0.562789977 -9.29862022 # C4
413 35 1 -0.095 5.12102079 0.138569996 -9.29862022 # C5
414 35 1 -0.095 5.12102079 1.54129004 -9.29862022 # C6
415 35 2 0.095 3.90623093 3.33021998 -9.29862022 # H1
416 35 2 0.095 1.74957097 2.08507991 -9.29862022 # H2
417 35 2 0.095 1.74957097 -0.405220002 -9.29862022 # H3
418 35 2 0.095 3.90623093 -1.65035999 -9.29862022 # H4
419 35 2 0.095 6.06289101 -0.405220002 -9.29862022 # H5
420 35 2 0.095 6.06289101 2.08507991 -9.29862022 # H6
421 36 1 -0.095 -3.60353899 13.1224728 -3.53287601 # C1
422 36 1 -0.095 -4.81832886 12.4211130 -3.53287601 # C2
423 36 1 -0.095 -4.81832886 11.0183926 -3.53287601 # C3
424 36 1 -0.095 -3.60353899 10.3170328 -3.53287601 # C4
425 36 1 -0.095 -2.38874888 11.0183926 -3.53287601 # C5
426 36 1 -0.095 -2.38874888 12.4211130 -3.53287601 # C6
427 36 2 0.095 -3.60353899 14.2100420 -3.53287601 # H1
428 36 2 0.095 -5.76019907 12.9649029 -3.53287601 # H2
429 36 2 0.095 -5.76019907 10.4746027 -3.53287601 # H3
430 36 2 0.095 -3.60353899 9.22946262 -3.53287601 # H4
431 36 2 0.095 -1.44687903 10.4746027 -3.53287601 # H5
432 36 2 0.095 -1.44687903 12.9649029 -3.53287601 # H6
433 37 1 -0.095 12.0601273 2.55786896 -11.0068398 # C1
434 37 1 -0.095 10.8453369 1.85650897 -11.0068398 # C2
435 37 1 -0.095 10.8453369 0.453788996 -11.0068398 # C3
436 37 1 -0.095 12.0601273 -0.247571006 -11.0068398 # C4
437 37 1 -0.095 13.2749166 0.453788996 -11.0068398 # C5
438 37 1 -0.095 13.2749166 1.85650897 -11.0068398 # C6
439 37 2 0.095 12.0601273 3.64543891 -11.0068398 # H1
440 37 2 0.095 9.90346718 2.40029907 -11.0068398 # H2
441 37 2 0.095 9.90346718 -9.00010020E-02 -11.0068398 # H3
442 37 2 0.095 12.0601273 -1.33514094 -11.0068398 # H4
443 37 2 0.095 14.2167873 -9.00010020E-02 -11.0068398 # H5
444 37 2 0.095 14.2167873 2.40029907 -11.0068398 # H6
445 38 1 -0.095 5.58633995 -4.10283518 11.6140728 # C1
446 38 1 -0.095 4.37155008 -4.80419493 11.6140728 # C2
447 38 1 -0.095 4.37155008 -6.20691490 11.6140728 # C3
448 38 1 -0.095 5.58633995 -6.90827513 11.6140728 # C4
449 38 1 -0.095 6.80112982 -6.20691490 11.6140728 # C5
450 38 1 -0.095 6.80112982 -4.80419493 11.6140728 # C6
451 38 2 0.095 5.58633995 -3.01526499 11.6140728 # H1
452 38 2 0.095 3.42968011 -4.26040506 11.6140728 # H2
453 38 2 0.095 3.42968011 -6.75070477 11.6140728 # H3
454 38 2 0.095 5.58633995 -7.99584484 11.6140728 # H4
455 38 2 0.095 7.74300098 -6.75070477 11.6140728 # H5
456 38 2 0.095 7.74300098 -4.26040506 11.6140728 # H6
457 39 1 -0.095 5.41213799 -10.3316441 7.62506914 # C1
458 39 1 -0.095 4.19734812 -11.0330038 7.62506914 # C2
459 39 1 -0.095 4.19734812 -12.4357243 7.62506914 # C3
460 39 1 -0.095 5.41213799 -13.1370840 7.62506914 # C4
461 39 1 -0.095 6.62692785 -12.4357243 7.62506914 # C5
462 39 1 -0.095 6.62692785 -11.0330038 7.62506914 # C6
463 39 2 0.095 5.41213799 -9.24407387 7.62506914 # H1
464 39 2 0.095 3.25547791 -10.4892139 7.62506914 # H2
465 39 2 0.095 3.25547791 -12.9795141 7.62506914 # H3
466 39 2 0.095 5.41213799 -14.2246542 7.62506914 # H4
467 39 2 0.095 7.56879807 -12.9795141 7.62506914 # H5
468 39 2 0.095 7.56879807 -10.4892139 7.62506914 # H6
469 40 1 -0.095 -0.710079014 -2.88186097 -4.46644878 # C1
470 40 1 -0.095 -1.92486894 -3.58322096 -4.46644878 # C2
471 40 1 -0.095 -1.92486894 -4.98594093 -4.46644878 # C3
472 40 1 -0.095 -0.710079014 -5.68730116 -4.46644878 # C4
473 40 1 -0.095 0.504710972 -4.98594093 -4.46644878 # C5
474 40 1 -0.095 0.504710972 -3.58322096 -4.46644878 # C6
475 40 2 0.095 -0.710079014 -1.79429102 -4.46644878 # H1
476 40 2 0.095 -2.86673903 -3.03943110 -4.46644878 # H2
477 40 2 0.095 -2.86673903 -5.52973080 -4.46644878 # H3
478 40 2 0.095 -0.710079014 -6.77487087 -4.46644878 # H4
479 40 2 0.095 1.44658101 -5.52973080 -4.46644878 # H5
480 40 2 0.095 1.44658101 -3.03943110 -4.46644878 # H6
481 41 1 -0.095 -12.0596352 6.85132980 2.34033298 # C1
482 41 1 -0.095 -13.2744246 6.14997005 2.34033298 # C2
483 41 1 -0.095 -13.2744246 4.74725008 2.34033298 # C3
484 41 1 -0.095 -12.0596352 4.04588985 2.34033298 # C4
485 41 1 -0.095 -10.8448448 4.74725008 2.34033298 # C5
486 41 1 -0.095 -10.8448448 6.14997005 2.34033298 # C6
487 41 2 0.095 -12.0596352 7.93889999 2.34033298 # H1
488 41 2 0.095 -14.2162952 6.69375992 2.34033298 # H2
489 41 2 0.095 -14.2162952 4.20346022 2.34033298 # H3
490 41 2 0.095 -12.0596352 2.95831990 2.34033298 # H4
491 41 2 0.095 -9.90297508 4.20346022 2.34033298 # H5
492 41 2 0.095 -9.90297508 6.69375992 2.34033298 # H6
493 42 1 -0.095 9.63232803 2.10383296 -13.6350031 # C1
494 42 1 -0.095 8.41753769 1.40247297 -13.6350031 # C2
495 42 1 -0.095 8.41753769 -2.46999989E-04 -13.6350031 # C3
496 42 1 -0.095 9.63232803 -0.701606989 -13.6350031 # C4
497 42 1 -0.095 10.8471184 -2.46999989E-04 -13.6350031 # C5
498 42 1 -0.095 10.8471184 1.40247297 -13.6350031 # C6
499 42 2 0.095 9.63232803 3.19140291 -13.6350031 # H1
500 42 2 0.095 7.47566795 1.94626296 -13.6350031 # H2
501 42 2 0.095 7.47566795 -0.544036984 -13.6350031 # H3
502 42 2 0.095 9.63232803 -1.78917694 -13.6350031 # H4
503 42 2 0.095 11.7889881 -0.544036984 -13.6350031 # H5
504 42 2 0.095 11.7889881 1.94626296 -13.6350031 # H6
505 43 1 -0.095 11.4316320 -9.78454018 4.40676594 # C1
506 43 1 -0.095 10.2168417 -10.4858999 4.40676594 # C2
507 43 1 -0.095 10.2168417 -11.8886204 4.40676594 # C3
508 43 1 -0.095 11.4316320 -12.5899801 4.40676594 # C4
509 43 1 -0.095 12.6464224 -11.8886204 4.40676594 # C5
510 43 1 -0.095 12.6464224 -10.4858999 4.40676594 # C6
511 43 2 0.095 11.4316320 -8.69696999 4.40676594 # H1
512 43 2 0.095 9.27497196 -9.94211006 4.40676594 # H2
513 43 2 0.095 9.27497196 -12.4324102 4.40676594 # H3
514 43 2 0.095 11.4316320 -13.6775503 4.40676594 # H4
515 43 2 0.095 13.5882921 -12.4324102 4.40676594 # H5
516 43 2 0.095 13.5882921 -9.94211006 4.40676594 # H6
517 44 1 -0.095 0.991822004 -5.79933691 5.53653622 # C1
518 44 1 -0.095 -0.222967997 -6.50069714 5.53653622 # C2
519 44 1 -0.095 -0.222967997 -7.90341711 5.53653622 # C3
520 44 1 -0.095 0.991822004 -8.60477734 5.53653622 # C4
521 44 1 -0.095 2.20661211 -7.90341711 5.53653622 # C5
522 44 1 -0.095 2.20661211 -6.50069714 5.53653622 # C6
523 44 2 0.095 0.991822004 -4.71176720 5.53653622 # H1
524 44 2 0.095 -1.16483796 -5.95690680 5.53653622 # H2
525 44 2 0.095 -1.16483796 -8.44720745 5.53653622 # H3
526 44 2 0.095 0.991822004 -9.69234657 5.53653622 # H4
527 44 2 0.095 3.14848208 -8.44720745 5.53653622 # H5
528 44 2 0.095 3.14848208 -5.95690680 5.53653622 # H6
529 45 1 -0.095 3.96310997 13.1003141 -11.1101446 # C1
530 45 1 -0.095 2.74832010 12.3989544 -11.1101446 # C2
531 45 1 -0.095 2.74832010 10.9962339 -11.1101446 # C3
532 45 1 -0.095 3.96310997 10.2948742 -11.1101446 # C4
533 45 1 -0.095 5.17789984 10.9962339 -11.1101446 # C5
534 45 1 -0.095 5.17789984 12.3989544 -11.1101446 # C6
535 45 2 0.095 3.96310997 14.1878843 -11.1101446 # H1