LAMMPS (29 Sep 2021 - Update 2)
OMP_NUM_THREADS environment is not set. Defaulting to 1 thread. (src/comm.cpp:98)
  using 1 OpenMP thread(s) per MPI task
Reading data file ...
  orthogonal box = (-15.466318 -15.466318 -15.466318) to (15.466318 15.466318 15.466318)
  1 by 1 by 1 MPI processor grid
  reading atoms ...
  2400 atoms
  scanning bonds ...
  3 = max bonds/atom
  scanning angles ...
  3 = max angles/atom
  scanning dihedrals ...
  4 = max dihedrals/atom
  reading bonds ...
  2400 bonds
  reading angles ...
  3600 angles
  reading dihedrals ...
  3600 dihedrals
Finding 1-2 1-3 1-4 neighbors ...
  special bond factors lj:    0        0        0       
  special bond factors coul:  0        0        0       
     3 = max # of 1-2 neighbors
     4 = max # of 1-3 neighbors
     8 = max # of 1-4 neighbors
    10 = max # of special neighbors
  special bonds CPU = 0.001 seconds
  read_data CPU = 0.028 seconds
  200 rigid bodies with 2400 atoms
PPPM initialization ...
  using 12-bit tables for long-range coulomb (src/kspace.cpp:340)
  G vector (1/distance) = 0.1428774
  grid = 6 6 6
  stencil order = 5
  estimated absolute RMS force accuracy = 0.0078609937
  estimated relative force accuracy = 2.3673149e-05
  using double precision FFTW3
  3d grid and FFT values/proc = 1331 216
Neighbor list info ...
  update every 1 steps, delay 10 steps, check yes
  max neighbors/atom: 2000, page size: 100000
  master list distance cutoff = 16.655
  ghost atom cutoff = 16.655
  binsize = 8.3275, bins = 4 4 4
  1 neighbor lists, perpetual/occasional/extra = 1 0 0
  (1) pair lj/cut/coul/long, perpetual
      attributes: half, newton on
      pair build: half/bin/newton
      stencil: half/bin/3d
      bin: standard
Setting up Verlet run ...
  Unit style    : real
  Current step  : 0
  Time step     : 1
Per MPI rank memory allocation (min/avg/max) = 29.12 | 29.12 | 29.12 Mbytes
Step Temp E_pair E_mol TotEng Press 
       0    264.09429     12647.25            0    12961.349    98647.699 
    5000    9676.8594    1440.4319            0    12949.539    65840.805 
Loop time of 336.751 on 1 procs for 5000 steps with 2400 atoms

Performance: 1.283 ns/day, 18.708 hours/ns, 14.848 timesteps/s
100.0% CPU use with 1 MPI tasks x 1 OpenMP threads

MPI task timing breakdown:
Section |  min time  |  avg time  |  max time  |%varavg| %total
---------------------------------------------------------------
Pair    | 281.38     | 281.38     | 281.38     |   0.0 | 83.56
Bond    | 0.0047732  | 0.0047732  | 0.0047732  |   0.0 |  0.00
Kspace  | 8.7541     | 8.7541     | 8.7541     |   0.0 |  2.60
Neigh   | 44.149     | 44.149     | 44.149     |   0.0 | 13.11
Comm    | 1.0106     | 1.0106     | 1.0106     |   0.0 |  0.30
Output  | 4.0419e-05 | 4.0419e-05 | 4.0419e-05 |   0.0 |  0.00
Modify  | 1.3253     | 1.3253     | 1.3253     |   0.0 |  0.39
Other   |            | 0.1296     |            |       |  0.04

Nlocal:        2400.00 ave        2400 max        2400 min
Histogram: 1 0 0 0 0 0 0 0 0 0
Nghost:        19158.0 ave       19158 max       19158 min
Histogram: 1 0 0 0 0 0 0 0 0 0
Neighs:    1.88224e+06 ave 1.88224e+06 max 1.88224e+06 min
Histogram: 1 0 0 0 0 0 0 0 0 0

Total # of neighbors = 1882237
Ave neighs/atom = 784.26542
Ave special neighs/atom = 8.5000000
Neighbor list builds = 426
Dangerous builds = 57
  create bodies CPU = 0.001 seconds
  200 rigid bodies with 2400 atoms
  3.8930168 = max distance from body owner to body atom
PPPM initialization ...
  using 12-bit tables for long-range coulomb (src/kspace.cpp:340)
  G vector (1/distance) = 0.1428774
  grid = 6 6 6
  stencil order = 5
  estimated absolute RMS force accuracy = 0.0078609937
  estimated relative force accuracy = 2.3673149e-05
  using double precision FFTW3
  3d grid and FFT values/proc = 1331 216
Setting up Verlet run ...
  Unit style    : real
  Current step  : 5000
  Time step     : 1
Per MPI rank memory allocation (min/avg/max) = 37.02 | 37.02 | 37.02 Mbytes
Step Temp E_pair E_mol TotEng Press Volume 
    5000    9676.8594    1440.4319            0    12949.539    73104.228    29597.212 
 1005000    258.62471   -1416.4615            0    -1108.868   -52.394417    29275.886 
Loop time of 60775.5 on 1 procs for 1000000 steps with 2400 atoms

Performance: 1.422 ns/day, 16.882 hours/ns, 16.454 timesteps/s
99.9% CPU use with 1 MPI tasks x 1 OpenMP threads

MPI task timing breakdown:
Section |  min time  |  avg time  |  max time  |%varavg| %total
---------------------------------------------------------------
Pair    | 56419      | 56419      | 56419      |   0.0 | 92.83
Bond    | 1.9918     | 1.9918     | 1.9918     |   0.0 |  0.00
Kspace  | 1818.7     | 1818.7     | 1818.7     |   0.0 |  2.99
Neigh   | 1482.1     | 1482.1     | 1482.1     |   0.0 |  2.44
Comm    | 163.27     | 163.27     | 163.27     |   0.0 |  0.27
Output  | 3.8436e-05 | 3.8436e-05 | 3.8436e-05 |   0.0 |  0.00
Modify  | 857.2      | 857.2      | 857.2      |   0.0 |  1.41
Other   |            | 33.44      |            |       |  0.06

Nlocal:        2400.00 ave        2400 max        2400 min
Histogram: 1 0 0 0 0 0 0 0 0 0
Nghost:        19319.0 ave       19319 max       19319 min
Histogram: 1 0 0 0 0 0 0 0 0 0
Neighs:    1.90483e+06 ave 1.90483e+06 max 1.90483e+06 min
Histogram: 1 0 0 0 0 0 0 0 0 0

Total # of neighbors = 1904833
Ave neighs/atom = 793.68042
Ave special neighs/atom = 8.5000000
Neighbor list builds = 14813
Dangerous builds = 1
PPPM initialization ...
  using 12-bit tables for long-range coulomb (src/kspace.cpp:340)
  G vector (1/distance) = 0.14311377
  grid = 6 6 6
  stencil order = 5
  estimated absolute RMS force accuracy = 0.0077897126
  estimated relative force accuracy = 2.3458488e-05
  using double precision FFTW3
  3d grid and FFT values/proc = 1331 216
Setting up Verlet run ...
  Unit style    : real
  Current step  : 0
  Time step     : 1
Per MPI rank memory allocation (min/avg/max) = 37.41 | 37.41 | 37.41 Mbytes
Step Temp Press v_dens Volume PotEng KinEng TotEng E_vdwl E_coul E_pair E_bond E_angle E_dihed E_impro E_mol E_long E_tail 
       0    258.62471    579.19102    886.12002    29275.886   -1416.4494    307.59354   -1108.8559   -1635.2573     798.6113   -1416.4494            0            0            0            0            0   -579.80341   -28.715204 
    5000    277.65751     401.8724     894.4964    29001.736   -1427.0332    330.23008   -1096.8031   -1640.2029    792.90037   -1427.0332            0            0            0            0            0   -579.73073   -28.986645 
   10000    265.58651    3.5924773    910.14903    28502.968   -1482.4484    315.87351   -1166.5749   -1698.4096    795.66667   -1482.4484            0            0            0            0            0   -579.70553   -29.493877 
   15000    272.02679   -296.01181    891.50294    29099.117   -1445.1153    323.53322   -1121.5821    -1661.497    796.04958   -1445.1153            0            0            0            0            0   -579.66793    -28.88964 
   20000    260.82569   -104.41408    892.05765    29081.023    -1431.125    310.21127   -1120.9137   -1645.4153     794.0227    -1431.125            0            0            0            0            0   -579.73237   -28.907616 
   25000    260.63865    52.295582    897.86973    28892.775   -1448.5506    309.98881   -1138.5617   -1669.0228    800.27962   -1448.5506            0            0            0            0            0   -579.80739    -29.09596 
   30000    279.78352    588.09245    907.39052    28589.618   -1457.2971    332.75863   -1124.5384   -1667.3708    789.91936   -1457.2971            0            0            0            0            0   -579.84563   -29.404486 
   35000    283.55978    171.60646    908.53425    28553.627    -1482.111     337.2499   -1144.8611   -1690.6141    788.17365    -1482.111            0            0            0            0            0   -579.67057   -29.441549 
   40000    274.80481    73.324054    898.31785    28878.363   -1456.5364    326.83723   -1129.6991   -1666.5881    789.87819   -1456.5364            0            0            0            0            0   -579.82647   -29.110481 
   45000    260.22876   -50.517729    892.37391    29070.716   -1434.9753    309.50131    -1125.474    -1647.769    792.78978   -1434.9753            0            0            0            0            0   -579.99612   -28.917865 
   50000     277.0789   -179.98794    899.22282      28849.3   -1452.2475     329.5419   -1122.7056   -1672.9292     800.6183   -1452.2475            0            0            0            0            0   -579.93658   -29.139807 
   55000    283.78012   -288.30112    874.99062    29648.259   -1393.7622    337.51196   -1056.2503    -1610.116    796.25975   -1393.7622            0            0            0            0            0   -579.90602    -28.35455 
   60000     245.1053    174.26193    901.45152    28777.974   -1454.1153    291.51433    -1162.601   -1666.7708    792.52054   -1454.1153            0            0            0            0            0   -579.86509    -29.21203 
   65000    268.96883   -238.23162    880.02302    29478.716   -1404.9263    319.89626     -1085.03   -1627.1874    801.89247   -1404.9263            0            0            0            0            0    -579.6313   -28.517627 
   70000    280.95077   -329.49236    873.67068    29693.052   -1399.4952    334.14689   -1065.3483   -1612.0894    792.63203   -1399.4952            0            0            0            0            0   -580.03791   -28.311776 
   75000    274.29811   -98.708952    890.39035    29135.478   -1440.1694     326.2346   -1113.9348   -1647.7157    787.41089   -1440.1694            0            0            0            0            0   -579.86464   -28.853586 
   80000    254.76666    173.44174    889.72563    29157.246    -1415.664    303.00499    -1112.659   -1637.5055    801.77548    -1415.664            0            0            0            0            0   -579.93395   -28.832046 
   85000    268.75378   -227.83317    890.44504    29133.689   -1444.4474    319.64048   -1124.8069   -1650.8881    786.17302   -1444.4474            0            0            0            0            0   -579.73234   -28.855358 
   90000    261.14601   -108.18058    896.04202     28951.71   -1450.5118    310.59223   -1139.9196   -1668.0996     797.4112   -1450.5118            0            0            0            0            0   -579.82338   -29.036732 
   95000    273.44225    18.932436    904.36973    28685.114   -1469.3209    325.21669   -1144.1043   -1682.2611    792.69024   -1469.3209            0            0            0            0            0   -579.75005   -29.306596 
  100000    296.32139   -56.586238    893.02863    29049.403   -1436.6245    352.42783   -1084.1967   -1654.3926    797.71841   -1436.6245            0            0            0            0            0   -579.95034   -28.939081 
  105000    266.99555    168.07695    901.87525    28764.453   -1447.3924    317.54934   -1129.8431   -1673.9231    806.40515   -1447.3924            0            0            0            0            0   -579.87445   -29.225761 
  110000    267.90678   -113.81348    886.25514    29271.422   -1418.8334    318.63311   -1100.2003   -1638.3453     799.4611   -1418.8334            0            0            0            0            0   -579.94918   -28.719583 
  115000    277.64169   -486.81677    879.40024    29499.592   -1415.0928    330.21125   -1084.8815    -1630.516    795.11075   -1415.0928            0            0            0            0            0   -579.68757   -28.497446 
  120000     265.3011    135.35514    899.68722    28834.408   -1456.8687    315.53406   -1141.3347   -1670.5996    793.73386   -1456.8687            0            0            0            0            0     -580.003   -29.154856 
  125000    273.57295     78.25517    901.99099    28760.763   -1462.7985    325.37213   -1137.4263   -1680.1419    797.26446   -1462.7985            0            0            0            0            0   -579.92105   -29.229511 
  130000    270.36958    19.097255    888.43866    29199.482   -1426.4441    321.56222   -1104.8819   -1644.0179    797.30441   -1426.4441            0            0            0            0            0   -579.73068   -28.790341 
  135000    271.53126   -25.651055    884.41406    29332.357   -1411.4525    322.94386   -1088.5087   -1627.8449    795.91129   -1411.4525            0            0            0            0            0   -579.51892   -28.659921 
  140000    266.40897    144.85263    899.39856    28843.663   -1445.9403    316.85169   -1129.0887   -1661.9658    795.88177   -1445.9403            0            0            0            0            0   -579.85636   -29.145502 
  145000    267.01299    14.034806    884.66033    29324.191   -1414.4562    317.57008   -1096.8861    -1631.796    797.23281   -1414.4562            0            0            0            0            0   -579.89307   -28.667902 
  150000    257.15414   -53.695157    892.09581    29079.779   -1437.4162    305.84453   -1131.5717   -1644.8208    787.00998   -1437.4162            0            0            0            0            0   -579.60545   -28.908853 
  155000     267.0369   -390.46373    886.26727    29271.022   -1431.7769    317.59853   -1114.1783   -1648.1799    796.29976   -1431.7769            0            0            0            0            0   -579.89677   -28.719976 
  160000    280.67293    220.41391    897.47267    28905.558   -1442.3932    333.81645   -1108.5768   -1656.5137    793.91736   -1442.3932            0            0            0            0            0   -579.79692   -29.083093 
  165000    280.70314   -359.32658    902.50345    28744.432   -1472.0938    333.85237   -1138.2414   -1684.4969    792.12101   -1472.0938            0            0            0            0            0   -579.71789   -29.246118 
  170000    264.79739   -294.48859    898.04552     28887.12   -1457.6818    314.93497   -1142.7468   -1676.1135    798.35057   -1457.6818            0            0            0            0            0   -579.91891   -29.101656 
  175000    268.16437     410.6728    903.37209    28716.792   -1450.6195    318.93947     -1131.68   -1656.8482    785.95265   -1450.6195            0            0            0            0            0   -579.72395   -29.274267 
  180000    261.55772   -242.60352    884.98784    29313.339   -1420.8308     311.0819   -1109.7489   -1634.2664    793.36514   -1420.8308            0            0            0            0            0   -579.92954   -28.678515 
  185000    264.85083   -393.76461     886.5693     29261.05   -1431.0339    314.99854   -1116.0354   -1644.6647    793.65399   -1431.0339            0            0            0            0            0   -580.02317   -28.729763 
  190000    273.12526    116.93694    885.07341    29310.505   -1402.7406    324.83968   -1077.9009   -1625.3707    802.30249   -1402.7406            0            0            0            0            0   -579.67238   -28.681288 
  195000    284.02415   -378.52211    875.57613    29628.433   -1397.9626     337.8022   -1060.1604   -1614.9707    796.61426   -1397.9626            0            0            0            0            0   -579.60611   -28.373523 
  200000    269.14101    131.91662    886.29219    29270.199   -1417.6558    320.10103   -1097.5548   -1633.6949    795.71366   -1417.6558            0            0            0            0            0   -579.67453   -28.720783 
  205000    276.02074    241.10216    895.20928    28978.641   -1435.4321    328.28339   -1107.1487   -1654.5327    798.91664   -1435.4321            0            0            0            0            0   -579.81604   -29.009746 
  210000    273.96652    343.02767    897.43537     28906.76   -1424.1742    325.84022    -1098.334   -1644.5493    800.24655   -1424.1742            0            0            0            0            0   -579.87145   -29.081884 
  215000    267.22225    392.97517    909.11416    28535.414   -1477.8324    317.81897   -1160.0135   -1685.4656    787.41854   -1477.8324            0            0            0            0            0   -579.78536   -29.460342 
  220000    273.59688   -338.83691    875.89429    29617.671   -1406.3712    325.40059   -1080.9706   -1623.2092    796.67499   -1406.3712            0            0            0            0            0   -579.83704   -28.383834 
  225000    297.58392   -13.035727    885.05353    29311.163   -1414.7884    353.92941    -1060.859   -1632.5759    797.52353   -1414.7884            0            0            0            0            0   -579.73603   -28.680644 
  230000    266.04236    123.82353    885.36507     29300.85   -1416.0951    316.41567   -1099.6794    -1634.478    798.22906   -1416.0951            0            0            0            0            0   -579.84613   -28.690739 
  235000     289.8921    504.42109    895.99576    28953.205   -1422.1434     344.7812   -1077.3622    -1640.015    797.61199   -1422.1434            0            0            0            0            0   -579.74038   -29.035232 
  240000    270.21331    23.074238    898.45207    28874.048   -1452.0519    321.37637   -1130.6755   -1664.4771    792.28363   -1452.0519            0            0            0            0            0   -579.85839   -29.114831 
  245000     281.4673   -229.19534    896.28364    28943.905   -1453.4657    334.76122   -1118.7045   -1670.7808    797.18509   -1453.4657            0            0            0            0            0   -579.87004   -29.044562 
  250000    273.20985    60.115448    883.47883    29363.407   -1404.1885    324.94028   -1079.2483   -1619.6705    795.37571   -1404.1885            0            0            0            0            0   -579.89371   -28.629615 
  255000     278.1026    193.77682    889.45813    29166.014   -1428.9433    330.75944   -1098.1839    -1641.089    791.96167   -1428.9433            0            0            0            0            0   -579.81595   -28.823377 
  260000    264.51887    155.80113    882.69549    29389.466   -1413.8339    314.60372   -1099.2302   -1624.2984    790.39765   -1413.8339            0            0            0            0            0   -579.93316    -28.60423 
  265000    275.41573   -663.37359    874.90616    29651.121   -1418.0502    327.56383   -1090.4864   -1625.5893    787.42452   -1418.0502            0            0            0            0            0   -579.88546   -28.351813 
  270000    258.46626    831.78326    906.95139    28603.461   -1451.1118     307.4051   -1143.7067   -1662.1662    790.67574   -1451.1118            0            0            0            0            0   -579.62137   -29.390256 
  275000    274.01116   -110.74772     887.8894    29217.545    -1435.828    325.89331   -1109.9347   -1649.6449    793.65244    -1435.828            0            0            0            0            0   -579.83561   -28.772541 
  280000    270.46735   -429.71073    886.47666    29264.108   -1439.3417    321.67851   -1117.6632   -1649.9334    790.33061   -1439.3417            0            0            0            0            0   -579.73894   -28.726761 
  285000    275.20265   -188.90364    900.44731    28810.068   -1460.1938     327.3104   -1132.8834   -1674.1793    793.84482   -1460.1938            0            0            0            0            0   -579.85933   -29.179488 
  290000    274.37668   -104.92508    900.29907    28814.812   -1465.0966    326.32804   -1138.7686   -1672.9865    787.83753   -1465.0966            0            0            0            0            0   -579.94766   -29.174684 
  295000    255.28549    19.799749    895.09985    28982.184   -1447.2574    303.62207   -1143.6353   -1659.8945    792.49185   -1447.2574            0            0            0            0            0   -579.85471     -29.0062 
  300000    277.76828   -279.87911    899.58258    28837.762   -1467.0277    330.36181   -1136.6659   -1670.2016    783.14807   -1467.0277            0            0            0            0            0   -579.97418   -29.151465 
  305000    254.23949   -631.74807     897.9743    28889.411    -1481.856    302.37801    -1179.478   -1695.1107    793.17493    -1481.856            0            0            0            0            0   -579.92029   -29.099348 
  310000    272.91438   -1.6369366    883.28155    29369.965   -1407.0192    324.58887   -1082.4303   -1627.0865    799.77492   -1407.0192            0            0            0            0            0   -579.70756   -28.623222 
  315000    268.55843    51.519935    906.42587    28620.044   -1470.8121    319.40815   -1151.4039   -1681.6013    790.56227   -1470.8121            0            0            0            0            0    -579.7731   -29.373226 
  320000    257.13347   -297.74566    890.10197    29144.918   -1432.6474    305.81995   -1126.8274   -1654.0182    801.21052   -1432.6474            0            0            0            0            0   -579.83966   -28.844241 
  325000    272.57442    132.46049     884.0508    29344.409   -1409.9511    324.18454   -1085.7666   -1621.6824    791.47077   -1409.9511            0            0            0            0            0   -579.73951    -28.64815 
  330000    276.41999   -321.30606    887.26126     29238.23   -1435.7728    328.75823   -1107.0145   -1652.1549    796.11123   -1435.7728            0            0            0            0            0   -579.72911   -28.752187 
  335000    256.14114    4.2793695    894.04215    29016.472    -1442.432    304.63973   -1137.7923   -1662.7042      799.978    -1442.432            0            0            0            0            0   -579.70588   -28.971925 
  340000    270.97394    220.76473    902.65279    28739.676   -1459.8578    322.28101   -1137.5768   -1672.4442    792.51715   -1459.8578            0            0            0            0            0   -579.93072   -29.250957 
  345000    297.85705   -90.230357    890.06803    29146.029   -1438.9889    354.25426   -1084.7346   -1652.4715    793.41716   -1438.9889            0            0            0            0            0   -579.93454   -28.843141 
  350000    272.33486   -184.70057    895.45179    28970.793   -1460.6792    323.89961   -1136.7796   -1669.9449    789.01391   -1460.6792            0            0            0            0            0   -579.74822   -29.017605 
  355000    280.62283    163.83746    879.60737    29492.646     -1388.44    333.75685   -1054.6832   -1611.9341    803.12524     -1388.44            0            0            0            0            0   -579.63118   -28.504158 
  360000    253.00026    85.812779    893.54297    29032.682    -1434.574    300.90414   -1133.6698   -1647.5115    792.70738    -1434.574            0            0            0            0            0   -579.76987   -28.955748 
  365000    280.14685   -124.14005    895.50292    28969.139   -1455.1587    333.19075    -1121.968   -1668.8562    793.60534   -1455.1587            0            0            0            0            0   -579.90782   -29.019262 
  370000    271.93337   -339.52106    874.00856    29681.573   -1393.8083     323.4221   -1070.3862   -1610.2473    796.31755   -1393.8083            0            0            0            0            0   -579.87859   -28.322725 
  375000    272.37516    424.07614    887.82807    29219.563   -1397.7843    323.94755   -1073.8367   -1612.6156    794.76671   -1397.7843            0            0            0            0            0   -579.93545   -28.770554 
  380000    274.50639    184.72102    898.44468    28874.286   -1449.5529    326.48231   -1123.0705   -1663.9728     794.3207   -1449.5529            0            0            0            0            0    -579.9008   -29.114591 
  385000    282.51497    233.01661    900.62538    28804.372   -1451.8655    336.00726   -1115.8583   -1659.5927       787.64   -1451.8655            0            0            0            0            0   -579.91279   -29.185258 
  390000     267.2781   -447.61267    891.26894    29106.757   -1458.5851    317.88539   -1140.6997   -1663.1993    784.48286   -1458.5851            0            0            0            0            0   -579.86866   -28.882057 
  395000     274.7652    71.819217    912.09664    28442.105   -1483.9033    326.79012   -1157.1131   -1695.5359    791.62526   -1483.9033            0            0            0            0            0   -579.99266    -29.55699 
  400000    260.89571    78.278458    901.59136    28773.511   -1454.2577    310.29454   -1143.9631   -1669.2194    794.75451   -1454.2577            0            0            0            0            0   -579.79279   -29.216561 
  405000    285.43746    354.26284       894.03    29016.866   -1414.5076    339.48311   -1075.0245   -1633.5978    798.86909   -1414.5076            0            0            0            0            0   -579.77886   -28.971531 
  410000    281.07213   -111.00277    881.78397    29419.846   -1413.2077    334.29123   -1078.9164   -1631.5466    798.16081   -1413.2077            0            0            0            0            0   -579.82184   -28.574692 
  415000    271.47057   -13.262038    880.13723    29474.891    -1409.726    322.87168   -1086.8543   -1626.0953    796.10076    -1409.726            0            0            0            0            0   -579.73145   -28.521328 
  420000    280.78971    552.35921    906.90663    28604.873   -1451.9651    333.95534   -1118.0098   -1670.4017    798.02288   -1451.9651            0            0            0            0            0   -579.58634   -29.388805 
  425000    259.74432    154.29338    903.52281    28712.002   -1466.4263    308.92514   -1157.5011   -1675.6429    788.86164   -1466.4263            0            0            0            0            0   -579.64503   -29.279151 
  430000    251.57608    -93.43375     897.3148    28910.644   -1451.6708     299.2103   -1152.4605   -1672.6214    800.63063   -1451.6708            0            0            0            0            0   -579.68004   -29.077977 
  435000    270.34094   -176.46639    902.99845    28728.675   -1470.1684    321.52817   -1148.6402   -1682.3044    791.94901   -1470.1684            0            0            0            0            0   -579.81297   -29.262159 
  440000    275.50045     8.134631    895.46974    28970.212   -1444.2991    327.66458   -1116.6345   -1668.0585    803.37711   -1444.2991            0            0            0            0            0   -579.61768   -29.018187 
  445000    278.97687   -247.44095    885.49153    29296.665   -1423.9517    331.79925   -1092.1525   -1637.4265    793.31551   -1423.9517            0            0            0            0            0   -579.84072   -28.694837 
  450000    271.77872    375.15375    896.22199    28945.896   -1444.7316    323.23818   -1121.4934   -1653.9612    788.90947   -1444.7316            0            0            0            0            0   -579.67991   -29.042564 
  455000    248.61742   -573.65132    881.83284    29418.216    -1423.696    295.69144   -1128.0045   -1640.5527    796.77642    -1423.696            0            0            0            0            0   -579.91971   -28.576276 
  460000    285.96272    86.969496       884.25    29337.799   -1401.7484    340.10782   -1061.6406   -1616.7053    795.02661   -1401.7484            0            0            0            0            0   -580.06973   -28.654605 
  465000    281.72503    320.98343    884.96393    29314.131   -1406.2471    335.06776   -1071.1794   -1623.2453    796.87423   -1406.2471            0            0            0            0            0   -579.87605    -28.67774 
  470000    261.50022    39.931102    890.42473    29134.353   -1429.7408    311.01351   -1118.7273   -1644.8241    794.76818   -1429.7408            0            0            0            0            0   -579.68489     -28.8547 
  475000    283.35822   -60.827656    894.27986    29008.759   -1431.0322    337.01018    -1094.022   -1655.6435    804.28366   -1431.0322            0            0            0            0            0   -579.67234   -28.979628 
  480000    266.29926    247.49354    903.60655    28709.341   -1454.2985    316.72122   -1137.5773   -1671.1457    796.46069   -1454.2985            0            0            0            0            0   -579.61347   -29.281864 
  485000    249.38539    111.40894    895.23591    28977.779   -1441.7449    296.60482     -1145.14   -1657.9948    795.98873   -1441.7449            0            0            0            0            0   -579.73876   -29.010609 
  490000    262.15951   -34.907572    888.69514    29191.055   -1420.7012    311.79763   -1108.9036   -1638.0604     796.9839   -1420.7012            0            0            0            0            0    -579.6247   -28.798652 
  495000    279.52507    233.99252    896.37373    28940.996   -1437.2059    332.45124   -1104.7547   -1659.7089    802.56029   -1437.2059            0            0            0            0            0   -580.05734   -29.047481 
  500000    283.38159   -394.41937    882.88206    29383.255   -1421.8967    337.03797   -1084.8587   -1643.0958    801.13757   -1421.8967            0            0            0            0            0   -579.93845   -28.610276 
  505000    282.55192    276.16982      899.412    28843.232   -1447.7948     336.0512   -1111.7436   -1661.5685    793.59827   -1447.7948            0            0            0            0            0   -579.82458   -29.145938 
  510000     273.2494    235.05896    887.86149    29218.463   -1416.7337    324.98732   -1091.7463      -1627.5    790.56636   -1416.7337            0            0            0            0            0   -579.80006   -28.771637 
  515000    269.79283    201.29745    891.38227    29103.057   -1425.2996    320.87627   -1104.4234   -1642.8872    797.06367   -1425.2996            0            0            0            0            0   -579.47606    -28.88573 
  520000    277.48162    157.89238    889.50791    29164.382   -1424.4373    330.02088   -1094.4164   -1641.9929    797.53296   -1424.4373            0            0            0            0            0   -579.97739    -28.82499 
  525000    267.01951    249.31483    893.50469    29033.926   -1428.3204    317.57784   -1110.7426   -1640.3738    792.04062   -1428.3204            0            0            0            0            0   -579.98721   -28.954508 
  530000    268.22091    870.44812    913.85215    28387.468   -1467.9921    319.00672   -1148.9853   -1678.3648    790.37992   -1467.9921            0            0            0            0            0   -580.00719   -29.613879 
  535000    282.02797   -247.83593    889.42541    29167.087   -1432.6978    335.42805   -1097.2698   -1649.5858    796.63078   -1432.6978            0            0            0            0            0   -579.74283   -28.822317 
  540000    268.39836   -101.19032    893.35982    29038.634   -1436.0979    319.21777   -1116.8801   -1649.0726    792.62182   -1436.0979            0            0            0            0            0    -579.6471   -28.949813 
  545000     267.7587    15.725196    892.87243    29054.485   -1442.7265    318.45699   -1124.2695   -1650.1425    787.28104   -1442.7265            0            0            0            0            0    -579.8651   -28.934019 
  550000    281.14924   -356.86599    879.55813    29494.297   -1405.7666    334.38294   -1071.3837   -1631.3432    805.22679   -1405.7666            0            0            0            0            0   -579.65021   -28.502562 
  555000    260.44661   -342.08025    887.26784    29238.013   -1430.6801    309.76041   -1120.9197   -1645.2183    794.54129   -1430.6801            0            0            0            0            0   -580.00309     -28.7524 
  560000    253.45312    71.791843    888.42743    29199.851   -1412.4988    301.44275   -1111.0561   -1635.8059    803.13788   -1412.4988            0            0            0            0            0   -579.83082   -28.789977 
  565000    264.70626     152.4006    890.95207    29117.109    -1431.534    314.82659   -1116.7074   -1645.9084    794.27614    -1431.534            0            0            0            0            0   -579.90179   -28.871789 
  570000    284.47865    296.12212    892.46111    29067.876   -1422.7253    338.34275   -1084.3826   -1643.8105    801.04578   -1422.7253            0            0            0            0            0   -579.96057    -28.92069 
  575000    264.82891    -214.6312    885.81516    29285.962   -1426.5805    314.97247    -1111.608   -1643.6171    796.84376   -1426.5805            0            0            0            0            0   -579.80711   -28.705325 
  580000    284.08791   -557.95096    886.50028    29263.328   -1442.6762    337.87803   -1104.7982   -1658.1478    795.21604   -1442.6762            0            0            0            0            0   -579.74447   -28.727526 
  585000    276.68633    91.573889    899.16826     28851.05   -1450.4542    329.07501   -1121.3792   -1668.5035     797.9085   -1450.4542            0            0            0            0            0   -579.85916   -29.138039 
  590000    258.23389    46.335991    897.47695    28905.421   -1444.2493    307.12873   -1137.1206   -1657.6983    793.35198   -1444.2493            0            0            0            0            0   -579.90302   -29.083231 
  595000    248.25609    494.59461    896.88384    28924.536   -1428.2966     295.2617   -1133.0349   -1641.2157    792.84752   -1428.2966            0            0            0            0            0   -579.92845   -29.064011 
  600000    267.48947   -152.51337    889.55766    29162.751   -1422.9882    318.13679   -1104.8515    -1640.184    797.22335   -1422.9882            0            0            0            0            0   -580.02761   -28.826603 
  605000    268.16826   -111.50193     898.0817    28885.956   -1452.0802    318.94409   -1133.1361   -1672.0369    799.61866   -1452.0802            0            0            0            0            0   -579.66191   -29.102829 
  610000    262.85052    108.28016    892.75296    29058.373   -1434.2264    312.61948   -1121.6069   -1650.9642    796.49177   -1434.2264            0            0            0            0            0   -579.75395   -28.930148 
  615000    262.21359    140.02884    886.89472    29250.313   -1414.7857    311.86195   -1102.9238    -1629.157    794.20161   -1414.7857            0            0            0            0            0   -579.83035   -28.740309 
  620000    273.56611   -149.70242     888.7178    29190.311   -1433.4524    325.36399   -1108.0884    -1648.415    794.85455   -1433.4524            0            0            0            0            0   -579.89199   -28.799386 
  625000    276.94238    83.292368    885.20014    29306.309   -1413.4055    329.37954    -1084.026   -1629.0116    795.50612   -1413.4055            0            0            0            0            0   -579.90009   -28.685395 
  630000    265.73304   -224.63971    898.49449    28872.685   -1460.8946    316.04779   -1144.8468   -1671.4662    790.18498   -1460.8946            0            0            0            0            0   -579.61339   -29.116205 
  635000    260.86993    20.122955    889.66235    29159.319   -1427.7755    310.26388   -1117.5116   -1645.6727     797.7915   -1427.7755            0            0            0            0            0   -579.89427   -28.829995 
  640000    260.06379    21.161388    901.09983    28789.206    -1454.178     309.3051   -1144.8729   -1675.1968    800.85715    -1454.178            0            0            0            0            0    -579.8384   -29.200633 
  645000    261.26638    143.22583    884.67053    29323.853   -1414.5914     310.7354    -1103.856   -1625.0355    790.31438   -1414.5914            0            0            0            0            0   -579.87029   -28.668232 
  650000    252.06968   -180.91245    895.99722    28953.158   -1459.6916    299.79736   -1159.8943   -1667.9591    788.09575   -1459.6916            0            0            0            0            0   -579.82831    -29.03528 
  655000    272.32694   -494.05541    873.81743    29688.065   -1401.2848     323.8902   -1077.3946   -1619.5324    797.89378   -1401.2848            0            0            0            0            0    -579.6462   -28.316532 
  660000    286.90312     73.59783    880.17093    29473.762   -1395.0174    341.22628   -1053.7911   -1617.0176    801.57192   -1395.0174            0            0            0            0            0   -579.57174    -28.52242 
  665000    265.44556   -456.76343     892.1654     29077.51   -1458.6126    315.70587   -1142.9067   -1672.1734    793.22302   -1458.6126            0            0            0            0            0   -579.66224   -28.911108 
  670000    287.67163    176.99921    880.46121    29464.045   -1396.3448     342.1403   -1054.2045   -1615.3735     799.0628   -1396.3448            0            0            0            0            0   -580.03412   -28.531827 
  675000    263.11521    -5.595749    886.75111    29255.051   -1413.3525    312.93429   -1100.4182   -1629.1143    795.70164   -1413.3525            0            0            0            0            0   -579.93985   -28.735655 
  680000    265.27951   -442.41452    895.38895    28972.826   -1467.4786    315.50839   -1151.9702   -1679.3476    791.37531   -1467.4786            0            0            0            0            0   -579.50631   -29.015569 
  685000    275.87716    -25.74553    896.98124    28921.395   -1459.0185    328.11262   -1130.9059   -1666.3592     787.3529   -1459.0185            0            0            0            0            0   -580.01224   -29.067168 
  690000      276.165    155.64617    886.24398    29271.791   -1418.4095    328.45497   -1089.9545   -1624.7324    786.26839   -1418.4095            0            0            0            0            0   -579.94548   -28.719221 
  695000    276.17361   -59.422259     883.0138    29378.871   -1420.1321    328.46521   -1091.6668    -1631.147    790.83184   -1420.1321            0            0            0            0            0   -579.81693   -28.614545 
  700000    277.28225   -100.81419    885.44182     29298.31   -1421.5996    329.78376   -1091.8159    -1636.349    794.59999   -1421.5996            0            0            0            0            0   -579.85059   -28.693226 
  705000    282.91987   -170.57028    889.10001    29177.762   -1434.6063    336.48883   -1098.1175   -1642.1905    787.68297   -1434.6063            0            0            0            0            0   -580.09881   -28.811772 
  710000      259.902   -7.0407863    890.17394    29142.561   -1429.1132    309.11268   -1120.0005   -1645.7452    796.39448   -1429.1132            0            0            0            0            0   -579.76248   -28.846574 
  715000    254.95342   -50.561301    890.12601    29144.131    -1447.007    303.22712   -1143.7799   -1651.2526    784.23584    -1447.007            0            0            0            0            0   -579.99026    -28.84502 
  720000    268.33624   -256.41081     883.5203    29362.029   -1426.6999    319.14388    -1107.556   -1642.8175    795.83313   -1426.6999            0            0            0            0            0   -579.71556   -28.630958 
  725000    274.72845    104.41015    889.32524    29170.373    -1427.152    326.74642   -1100.4056   -1642.4305     795.1288    -1427.152            0            0            0            0            0   -579.85038   -28.819071 
  730000    264.88683    -267.5287     882.9478    29381.067   -1413.7936    315.04135   -1098.7523   -1633.1656     799.3026   -1413.7936            0            0            0            0            0   -579.93059   -28.612406 
  735000    258.11523   -184.60114    881.75794    29420.715   -1412.6752     306.9876   -1105.6876   -1631.6291    798.89924   -1412.6752            0            0            0            0            0   -579.94529   -28.573848 
  740000    280.62302    -100.3758    894.12183    29013.886   -1442.6914    333.75709   -1108.9343   -1655.3844    792.64163   -1442.6914            0            0            0            0            0   -579.94865   -28.974507 
  745000    263.94235   -156.68559    896.51942    28936.293   -1450.4883    313.91804   -1136.5702   -1667.9832    797.21556   -1450.4883            0            0            0            0            0   -579.72064   -29.052202 
  750000    262.85569    52.482013    911.44216    28462.529   -1484.5912    312.62562   -1171.9656   -1701.4734    796.72332   -1484.5912            0            0            0            0            0   -579.84115   -29.535782 
  755000    280.69577    158.14407    894.49009    29001.941   -1437.9916    333.84361    -1104.148   -1653.0649    794.78689   -1437.9916            0            0            0            0            0   -579.71361   -28.986441 
  760000    271.91143    115.56361    889.90423    29151.394   -1423.7994    323.39601   -1100.4034   -1639.5622    795.69089   -1423.7994            0            0            0            0            0   -579.92807   -28.837833 
  765000    288.39567    552.50173    889.55562    29162.818   -1411.9233    343.00143   -1068.9219    -1618.927    786.94256   -1411.9233            0            0            0            0            0   -579.93889   -28.826536 
  770000    270.12061    -250.2591    882.25328    29404.196   -1418.4769    321.26611   -1097.2108   -1633.4417    794.93099   -1418.4769            0            0            0            0            0   -579.96623     -28.5899 
  775000    264.21127    74.134464    892.27021    29074.095   -1418.8938    314.23788   -1104.6559   -1641.5252    802.62891   -1418.8938            0            0            0            0            0   -579.99751   -28.914504 
  780000    262.20732    58.167262    891.59834    29096.004   -1423.0462    311.85449   -1111.1917   -1645.1228    801.85071   -1423.0462            0            0            0            0            0   -579.77406   -28.892732 
  785000    274.65781   -299.31492    883.23876    29371.388    -1418.039     326.6624   -1091.3766   -1634.6466    796.41875    -1418.039            0            0            0            0            0   -579.81111   -28.621835 
  790000     273.5492   -176.72756    884.09801    29342.842   -1422.9221    325.34389   -1097.5782   -1640.7869    797.46237   -1422.9221            0            0            0            0            0   -579.59754    -28.64968 
  795000    263.17416   -293.64488    888.69404    29191.091   -1432.1832     313.0044   -1119.1788   -1644.1671    791.54711   -1432.1832            0            0            0            0            0    -579.5633   -28.798616 
  800000    272.75828    331.83143    894.62713    28997.498   -1433.8378    324.40321   -1109.4346   -1647.8792    793.76044   -1433.8378            0            0            0            0            0   -579.71903   -28.990881 
  805000    265.38568     531.8191    898.06284    28886.563   -1425.8808    315.63465   -1110.2461   -1644.3331    798.20636   -1425.8808            0            0            0            0            0   -579.75399   -29.102217 
  810000    253.61438    94.470421    894.24905    29009.758   -1445.3469    301.63454   -1143.7124    -1653.828    788.30235   -1445.3469            0            0            0            0            0   -579.82133   -28.978629 
  815000    264.27546   -616.39984    881.79509    29419.475   -1425.9462    314.31422   -1111.6319   -1643.4968    797.50509   -1425.9462            0            0            0            0            0   -579.95447   -28.575052 
  820000     275.7094    92.494296    896.47399    28937.759    -1442.355     327.9131   -1114.4419   -1659.9786    797.45768    -1442.355            0            0            0            0            0   -579.83404    -29.05073 
  825000    280.71524    488.99723    891.47204    29100.126   -1422.3926    333.86676   -1088.5259   -1633.3453    790.85067   -1422.3926            0            0            0            0            0   -579.89803   -28.888639 
  830000    276.49487   -52.689212    878.46268    29531.077   -1395.0134    328.84729   -1066.1661   -1609.9211     794.8309   -1395.0134            0            0            0            0            0   -579.92319   -28.467063 
  835000    271.38564    288.33371    900.61442    28804.723   -1449.2901    322.77067   -1126.5194   -1656.7464    787.32043   -1449.2901            0            0            0            0            0   -579.86409   -29.184903 
  840000    283.33172   -188.61943    891.86929    29087.164   -1434.8337    336.97866    -1097.855   -1654.0189     799.0189   -1434.8337            0            0            0            0            0   -579.83365   -28.901512 
  845000    274.79192    48.963633    885.42708    29298.798   -1409.0108     326.8219   -1082.1889   -1626.1125      796.647   -1409.0108            0            0            0            0            0   -579.54528   -28.692749 
  850000    274.14049   -56.932699    882.62181    29391.919   -1407.7541    326.04713    -1081.707   -1624.8679    796.95038   -1407.7541            0            0            0            0            0   -579.83667   -28.601842 
  855000    276.12492    84.063441    891.25224    29107.303   -1432.1218     328.4073   -1103.7145   -1639.8979    787.74803   -1432.1218            0            0            0            0            0   -579.97192   -28.881516 
  860000    265.67656    39.765257    878.77972    29520.422   -1402.3955    315.98061   -1086.4149   -1619.1576    796.86763   -1402.3955            0            0            0            0            0   -580.10555   -28.477338 
  865000    279.40941   -507.66195    882.63711    29391.409   -1426.1014    332.31368   -1093.7877   -1640.3999    794.30972   -1426.1014            0            0            0            0            0   -580.01119   -28.602338 
  870000    274.57141   -416.77839    889.49088    29164.941   -1445.5271    326.55965   -1118.9674   -1655.5591    789.96875   -1445.5271            0            0            0            0            0   -579.93673   -28.824438 
  875000    261.59883    460.13272    904.42707    28683.295    -1453.383    311.13079   -1142.2522   -1664.8352    791.47856    -1453.383            0            0            0            0            0   -580.02629   -29.308454 
  880000    266.93594   -76.875156     886.6168    29259.482    -1422.222    317.47844   -1104.7436   -1640.9662    798.73352    -1422.222            0            0            0            0            0    -579.9894   -28.731302 
  885000     266.5625    68.254629    896.87121    28924.943   -1453.0764     317.0343   -1136.0421   -1671.1016     797.8926   -1453.0764            0            0            0            0            0   -579.86741   -29.063602 
  890000    282.14206   -311.42238    892.04968    29081.282     -1456.81    335.56374   -1121.2462   -1669.6213    792.63215     -1456.81            0            0            0            0            0   -579.82079   -28.907358 
  895000    290.85986    25.124757    886.66971    29257.736   -1417.0425     345.9322   -1071.1103   -1630.8415    793.81686   -1417.0425            0            0            0            0            0   -580.01785   -28.733017 
  900000    261.30274    136.94786    902.11416    28756.836   -1458.2419    310.77863   -1147.4633   -1677.7019    799.38248   -1458.2419            0            0            0            0            0   -579.92252   -29.233503 
  905000    283.56377    3.3947085    897.61718    28900.905    -1453.362    337.25464   -1116.1073   -1669.0998    795.56354    -1453.362            0            0            0            0            0   -579.82569   -29.087775 
  910000    271.42458   -647.50494     878.2669    29537.659   -1421.8612    322.81698   -1099.0442   -1633.3775    791.37801   -1421.8612            0            0            0            0            0   -579.86163   -28.460719 
  915000    277.60206    228.49611    899.02452    28855.663   -1450.5311    330.16413    -1120.367    -1657.588    787.01025   -1450.5311            0            0            0            0            0    -579.9534   -29.133381 
  920000    282.76758   -191.12328    891.97064     29083.86   -1436.2064     336.3077   -1099.8987   -1652.1046    795.75696   -1436.2064            0            0            0            0            0   -579.85878   -28.904796 
  925000      260.876   -140.94855    885.83605    29285.271   -1426.8747     310.2711   -1116.6036   -1635.4971    788.64119   -1426.8747            0            0            0            0            0   -580.01882   -28.706002 
  930000    274.81427    551.51327    893.81417    29023.873   -1428.6101    326.84848   -1101.7617   -1639.2341      790.517   -1428.6101            0            0            0            0            0   -579.89303   -28.964537 
  935000    260.98377    -140.9325    884.76728    29320.646   -1411.4281    310.39928   -1101.0288   -1634.1155    802.64941   -1411.4281            0            0            0            0            0   -579.96197   -28.671368 
  940000    284.09215   -84.614371    903.14093    28724.142   -1473.2525    337.88307   -1135.3694    -1684.488    790.89619   -1473.2525            0            0            0            0            0   -579.66067   -29.266776 
  945000    246.38875   -492.05639    878.89659    29516.497    -1407.803    293.04079   -1114.7622   -1633.2656    805.42836    -1407.803            0            0            0            0            0   -579.96582   -28.481125 
  950000    273.22272    47.411493    893.84443     29022.89   -1441.2117    324.95559   -1116.2561   -1653.5412    792.13887   -1441.2117            0            0            0            0            0   -579.80944   -28.965518 
  955000    264.58553   -279.12186     873.1386    29711.146   -1383.3129    314.68301   -1068.6299   -1606.4261    803.04603   -1383.3129            0            0            0            0            0   -579.93281   -28.294534 
  960000     274.3869   -141.50645    889.60327    29161.256   -1422.2882     326.3402    -1095.948   -1640.2534     797.7426   -1422.2882            0            0            0            0            0   -579.77742    -28.82808 
  965000    266.14062   -65.904937    889.36511    29169.065   -1435.2806    316.53253   -1118.7481   -1647.6907    792.06967   -1435.2806            0            0            0            0            0   -579.65958   -28.820363 
  970000    249.36433   -14.220905    891.58106    29096.568   -1431.8089    296.57977   -1135.2291   -1651.1553    799.34197   -1431.8089            0            0            0            0            0   -579.99553   -28.892172 
  975000    278.71184   -149.45649    889.83738    29153.584   -1427.5839    331.48403   -1096.0998   -1643.7301    796.02201   -1427.5839            0            0            0            0            0   -579.87577   -28.835667 
  980000    285.55962    583.75449    896.00982     28952.75   -1417.7333     339.6284   -1078.1049   -1632.8312    794.69354   -1417.7333            0            0            0            0            0   -579.59568   -29.035688 
  985000    290.00728   -210.20397    899.00748     28856.21   -1466.6198    344.91819   -1121.7017    -1672.713     785.8466   -1466.6198            0            0            0            0            0   -579.75341   -29.132829 
  990000    275.12132    127.53572    903.30053    28719.067   -1463.5604    327.21368   -1136.3467   -1676.9426    793.40536   -1463.5604            0            0            0            0            0   -580.02317   -29.271948 
  995000    268.66271   -353.54703    889.80581    29154.618   -1436.5528    319.53217   -1117.0206   -1649.8107    793.04784   -1436.5528            0            0            0            0            0   -579.78992   -28.834644 
 1000000    245.05934    146.73601    895.67451    28963.589   -1447.3169    291.45966   -1155.8572   -1655.1894    787.60959   -1447.3169            0            0            0            0            0    -579.7371   -29.024822 
 1005000    258.27502    52.565687    891.13853    29111.017   -1428.2526    307.17764    -1121.075   -1637.3827    789.23464   -1428.2526            0            0            0            0            0   -580.10458   -28.877831 
 1010000    268.86597    95.959414    897.54037    28903.378     -1449.73    319.77391   -1129.9561   -1664.4306    794.48715     -1449.73            0            0            0            0            0   -579.78658   -29.085286 
 1015000    268.06495   -182.19447    892.03867    29081.641   -1438.9791    318.82123   -1120.1579    -1654.312    795.15903   -1438.9791            0            0            0            0            0    -579.8261   -28.907001 
 1020000     306.8858   -53.506872    892.28844    29073.501   -1442.1871    364.99254   -1077.1946   -1663.2514    800.86785   -1442.1871            0            0            0            0            0   -579.80355   -28.915095 
 1025000    269.08345   -151.98465    898.34238    28877.574   -1455.5265    320.03258   -1135.4939   -1674.5512      798.994   -1455.5265            0            0            0            0            0   -579.96925   -29.111276 
 1030000    261.15229   -22.244545    889.68448    29158.594   -1433.2468     310.5997   -1122.6471   -1645.1005    791.82558   -1433.2468            0            0            0            0            0   -579.97188   -28.830712 
 1035000    269.50368   -351.99299    887.24861    29238.647   -1433.6618    320.53238   -1113.1294   -1650.9243    796.92733   -1433.6618            0            0            0            0            0   -579.66481   -28.751776 
 1040000    283.42813   -451.85184    883.38884    29366.398    -1422.048    337.09332   -1084.9547   -1644.6426    802.36031    -1422.048            0            0            0            0            0   -579.76575   -28.626698 
 1045000    252.03122   -210.04229    875.05696    29646.011   -1395.8207    299.75162   -1096.0691   -1611.4904    795.38958   -1395.8207            0            0            0            0            0   -579.71991   -28.356699 
 1050000    295.17743    108.17609     898.0845    28885.866   -1450.8569    351.06728   -1099.7896   -1665.7531    794.86462   -1450.8569            0            0            0            0            0   -579.96848   -29.102919 
 1055000    293.48014   -372.61896    878.58125    29527.091   -1420.5327    349.04861   -1071.4841   -1630.9623    790.06691   -1420.5327            0            0            0            0            0   -579.63734   -28.470906 
 1060000    278.66966   -331.52067    877.47339    29564.371   -1415.4265    331.43387   -1083.9926   -1627.7073    792.33108   -1415.4265            0            0            0            0            0    -580.0502   -28.435005 
 1065000    276.24879    274.72243    893.85877    29022.424    -1432.679    328.55463   -1104.1244   -1641.9891    789.20745    -1432.679            0            0            0            0            0   -579.89735   -28.965982 
 1070000    261.03932    19.227685    886.48746    29263.751   -1420.6409    310.46535   -1110.1756   -1639.1169    798.32527   -1420.6409            0            0            0            0            0   -579.84932   -28.727111 
 1075000    259.88657    381.09509    905.76099    28641.053   -1464.0585    309.09432   -1154.9642   -1673.9027    789.66057   -1464.0585            0            0            0            0            0   -579.81643    -29.35168 
 1080000    281.27016    232.29095    890.65381     29126.86   -1426.5998    334.52676   -1092.0731   -1635.4254    788.65221   -1426.5998            0            0            0            0            0   -579.82668   -28.862124 
 1085000     269.8683    80.137548    895.94301    28954.909   -1442.7583    320.96603   -1121.7922   -1659.2734    796.23115   -1442.7583            0            0            0            0            0   -579.71599   -29.033523 
 1090000    274.61974    68.388273    884.48538    29329.991   -1404.9351    326.61712    -1078.318   -1623.0472    798.01617   -1404.9351            0            0            0            0            0   -579.90415   -28.662233 
 1095000     271.9446    146.76562    897.14156    28916.227   -1439.8238    323.43546   -1116.3883   -1656.2248    796.39648   -1439.8238            0            0            0            0            0   -579.99543   -29.072363 
 1100000    267.70601    311.28907    887.13476    29242.399   -1395.6012    318.39432   -1077.2069   -1617.6818    802.01629   -1395.6012            0            0            0            0            0   -579.93572   -28.748087 
 1105000    264.72753    23.187329    885.46742    29297.463   -1412.1263    314.85189   -1097.2744   -1625.7331    793.46662   -1412.1263            0            0            0            0            0   -579.85979   -28.694056 
 1110000     261.0934    281.16285    890.06631    29146.085   -1431.0799    310.52966   -1120.5502   -1640.3259    789.39911   -1431.0799            0            0            0            0            0   -580.15309   -28.843085 
 1115000    271.49584   -27.051833    890.36994    29136.146   -1430.1815    322.90174   -1107.2798   -1645.0158    794.72211   -1430.1815            0            0            0            0            0   -579.88789   -28.852925 
 1120000    272.60677    226.78742    898.81864    28862.273   -1446.2011    324.22302   -1121.9781   -1657.6609    791.43127   -1446.2011            0            0            0            0            0   -579.97153    -29.12671 
 1125000    284.13382     17.46235    886.79133    29253.724   -1418.6442    337.93263   -1080.7116   -1636.2604    797.29244   -1418.6442            0            0            0            0            0   -579.67624   -28.736958 
 1130000    250.60816   -171.47529    891.39124    29102.764   -1438.3884    298.05911   -1140.3293   -1653.9908    795.65852   -1438.3884            0            0            0            0            0   -580.05614   -28.886021 
 1135000    257.54334    418.87546    898.77247    28863.755   -1445.0938    306.30742   -1138.7864   -1657.9043    792.45255   -1445.0938            0            0            0            0            0   -579.64204   -29.125213 
 1140000    285.30077   -112.77227    892.05082    29081.245   -1435.8462    339.32054   -1096.5257   -1652.7347    796.58415   -1435.8462            0            0            0            0            0   -579.69566   -28.907395 
 1145000    279.19678   -761.55353    884.29611    29336.269   -1441.0541    332.06079   -1108.9933   -1657.1557    795.80001   -1441.0541            0            0            0            0            0    -579.6984   -28.656099 
 1150000    289.15644    143.53763    898.94547    28858.201     -1447.88    343.90625   -1103.9737   -1669.5451     801.5018     -1447.88            0            0            0            0            0   -579.83672    -29.13082 
 1155000    274.49483   -120.11165    874.79141    29655.011   -1395.3805    326.46856    -1068.912   -1613.5091    797.81956   -1395.3805            0            0            0            0            0   -579.69104   -28.348094 
 1160000    262.91859    12.238248    891.44037     29101.16   -1441.3827    312.70044   -1128.6823   -1645.2859    783.67255   -1441.3827            0            0            0            0            0   -579.76937   -28.887613 
 1165000    256.79642   -190.65274    900.08676    28821.609   -1459.8945    305.41907   -1154.4754    -1677.458    797.38325   -1459.8945            0            0            0            0            0   -579.81972   -29.167804 
 1170000    272.53509    299.87447    900.18408    28818.493   -1444.3102    324.13775   -1120.1724    -1661.583    797.04009   -1444.3102            0            0            0            0            0   -579.76725   -29.170958 
 1175000    281.08267   -72.518406    886.84079    29252.092   -1419.8832    334.30377   -1085.5794   -1637.1402    796.99057   -1419.8832            0            0            0            0            0    -579.7336   -28.738561 
 1180000     277.6091   -313.76206    888.76741    29188.681   -1437.9061     330.1725   -1107.7336   -1656.8656    798.98421   -1437.9061            0            0            0            0            0   -580.02474   -28.800994 
 1185000    280.27908    253.69947    888.00784    29213.648   -1408.8818    333.34802   -1075.5338   -1622.7042    793.56973   -1408.8818            0            0            0            0            0   -579.74734    -28.77638 
 1190000    256.05686    68.096052    884.46402      29330.7   -1412.7447    304.53949   -1108.2052   -1630.6053    797.65334   -1412.7447            0            0            0            0            0   -579.79269    -28.66154 
 1195000    273.87375    -144.8482    889.85395    29153.041   -1435.9127    325.72989   -1110.1828   -1645.3638    789.25852   -1435.9127            0            0            0            0            0   -579.80744   -28.836204 
 1200000    269.70423   -683.39472    875.74889    29622.588   -1410.1894     320.7709   -1089.4185    -1630.646    800.35665   -1410.1894            0            0            0            0            0   -579.90008   -28.379122 
 1205000    285.53735    147.34345    889.97827    29148.969   -1417.6492    339.60191   -1078.0473   -1637.2527    799.48833   -1417.6492            0            0            0            0            0   -579.88485   -28.840233 
 1210000    286.40078    205.98244    905.28685    28656.054   -1471.3898    340.62883    -1130.761    -1681.589    789.85754   -1471.3898            0            0            0            0            0   -579.65835   -29.336316 
 1215000    259.57227    175.44426    886.55773    29261.432   -1414.6809    308.72052   -1105.9604   -1630.5055    795.48304   -1414.6809            0            0            0            0            0   -579.65846   -28.729388 
 1220000    273.92596    496.08807    891.50814    29098.948   -1410.2545    325.79197   -1084.4625   -1629.3603    798.85387   -1410.2545            0            0            0            0            0   -579.74805   -28.889809 
 1225000    271.50042    140.43394    904.65948    28675.926   -1473.8748    322.90719   -1150.9676   -1678.5343    784.64515   -1473.8748            0            0            0            0            0   -579.98566   -29.315985 
 1230000    275.54886   -136.06851    896.21762    28946.037   -1448.5587    327.72216   -1120.8366   -1666.7857    798.32716   -1448.5587            0            0            0            0            0   -580.10019   -29.042422 
 1235000    277.98937   -385.22252     899.9179    28827.017    -1478.325    330.62477   -1147.7002   -1683.1611    784.83596    -1478.325            0            0            0            0            0   -579.99983   -29.162332 
 1240000    263.00907   -351.21598    880.21607    29472.251   -1410.1504    312.80805   -1097.3424   -1635.0792    804.74114   -1410.1504            0            0            0            0            0   -579.81236   -28.523883 
 1245000    260.73604   -360.86235    906.66559    28612.477   -1485.2765    310.10464   -1175.1719   -1703.3192    797.88274   -1485.2765            0            0            0            0            0   -579.84001   -29.380994 
 1250000    265.99897   -188.70664    887.80211    29220.418   -1432.6579    316.36407   -1116.2938   -1639.8471    786.90427   -1432.6579            0            0            0            0            0   -579.71512   -28.769713 
 1255000    268.53957    93.382914    882.41901    29398.674   -1407.3141    319.38571   -1087.9284   -1618.5467    791.02683   -1407.3141            0            0            0            0            0   -579.79423   -28.595271 
 1260000    266.62522    393.96704    902.69429    28738.355   -1464.6427     317.1089   -1147.5338   -1676.4245    791.53775   -1464.6427            0            0            0            0            0   -579.75588   -29.252302 
 1265000    308.82542    302.10832    896.78339    28927.776   -1435.9583    367.29942   -1068.6589   -1647.8864    791.83852   -1435.9583            0            0            0            0            0   -579.91047   -29.060756 
 1270000    265.14205   -172.47027    877.65264    29558.332   -1408.9397    315.34489   -1093.5948   -1624.4108    795.38593   -1408.9397            0            0            0            0            0    -579.9148   -28.440814 
 1275000    264.41718    1.5422308     881.2366     29438.12   -1407.3926    314.48278   -1092.9098   -1620.4177    792.73673   -1407.3926            0            0            0            0            0   -579.71157   -28.556954 
 1280000    252.22597    103.52352    907.54916    28584.621   -1480.7691    299.98324   -1180.7859    -1689.101    788.16817   -1480.7691            0            0            0            0            0   -579.83625   -29.409627 
 1285000    288.68753   -484.10459    865.24456    29982.215   -1375.5147    343.34856   -1032.1662    -1590.633    795.21375   -1375.5147            0            0            0            0            0   -580.09546   -28.038723 
 1290000    293.51357      191.626    898.71638    28865.557   -1441.3772    349.08837   -1092.2888   -1659.8988    798.46509   -1441.3772            0            0            0            0            0   -579.94349   -29.123396 
 1295000    285.85018   -19.246705     899.9546    28825.842   -1451.8471    339.97398   -1111.8732   -1672.5225    800.07557   -1451.8471            0            0            0            0            0   -579.40018   -29.163521 
 1300000    287.70386   -256.81612     895.2841     28976.22   -1447.8522    342.17864   -1105.6736   -1664.8819    797.02025   -1447.8522            0            0            0            0            0   -579.99058   -29.012171 
 1305000    247.30172    701.06392    909.97058    28508.557   -1456.3034    294.12662   -1162.1767   -1670.4448    794.03153   -1456.3034            0            0            0            0            0   -579.89015   -29.488094 
 1310000    251.36764    127.05713    893.84613    29022.835    -1436.908     298.9624   -1137.9456   -1648.0702    790.92016    -1436.908            0            0            0            0            0   -579.75798   -28.965573 
 1315000    266.59629   -45.148628    897.44065     28906.59   -1441.4611    317.07449   -1124.3866     -1658.98    797.22375   -1441.4611            0            0            0            0            0   -579.70484   -29.082055 
 1320000    286.26649    69.066958    886.90407    29250.005   -1418.5967     340.4691   -1078.1276   -1634.7467    795.62909   -1418.5967            0            0            0            0            0   -579.47912   -28.740611 
 1325000      250.697    72.804652    889.90351    29151.417   -1415.8454    298.16477   -1117.6806   -1637.8848    802.10329   -1415.8454            0            0            0            0            0   -580.06392    -28.83781 
 1330000    258.21877    268.13691    900.82412    28798.017   -1454.7975    307.11074   -1147.6868   -1664.6634    789.87775   -1454.7975            0            0            0            0            0   -580.01185   -29.191698 
 1335000    252.28381   -500.30453    886.44924    29265.013   -1445.3009    300.05204   -1145.2488   -1657.1203    791.45044   -1445.3009            0            0            0            0            0   -579.63102   -28.725872 
 1340000    284.76154   -335.85953    882.46054     29397.29   -1413.2991    338.67921   -1074.6199   -1637.2856    803.83202   -1413.2991            0            0            0            0            0   -579.84556   -28.596616 
 1345000    266.89594   -1.1280968    901.46886    28777.421   -1459.6361    317.43087   -1142.2052   -1671.4163     791.5737   -1459.6361            0            0            0            0            0   -579.79353   -29.212591 
 1350000    277.94402   -476.75046    884.42703    29331.927   -1435.1531    330.57084   -1104.5823   -1649.5309    794.39804   -1435.1531            0            0            0            0            0   -580.02033   -28.660342 
 1355000     266.0544     -61.9149    888.73573    29189.722   -1422.6581       316.43   -1106.2281   -1637.4597    794.02247   -1422.6581            0            0            0            0            0   -579.22082   -28.799968 
 1360000    279.66452   -65.089538    899.79098    28831.083   -1455.2594     332.6171   -1122.6424   -1669.4386    794.09951   -1455.2594            0            0            0            0            0   -579.92038   -29.158219 
 1365000    264.52689   -239.76522    902.82575     28734.17   -1470.2792    314.61326   -1155.6659   -1686.4228    796.01679   -1470.2792            0            0            0            0            0   -579.87321   -29.256562 
 1370000    279.79474    449.51558    889.38857    29168.295   -1412.1948    332.77198   -1079.4229   -1626.4178    794.06033   -1412.1948            0            0            0            0            0   -579.83739   -28.821123 
 1375000    264.11389   -7.2050111    893.86154    29022.335    -1432.936    314.12206   -1118.8139   -1651.2416    798.19281    -1432.936            0            0            0            0            0   -579.88716   -28.966072 
 1380000    272.64887   -355.34769     875.1021    29644.482   -1393.8661    324.27308    -1069.593   -1617.5984    803.69053   -1393.8661            0            0            0            0            0   -579.95817   -28.358162 
 1385000    263.44216    126.68129    887.39771    29233.734    -1412.628    313.32315   -1099.3048   -1631.6976    798.75705    -1412.628            0            0            0            0            0   -579.68741   -28.756608 
 1390000    255.49922    172.14251    890.94233    29117.427   -1415.2729    303.87626   -1111.3966   -1635.6614    800.18497   -1415.2729            0            0            0            0            0   -579.79649   -28.871474 
 1395000    269.12398    -104.2499      903.952     28698.37   -1467.2896    320.08078   -1147.2088   -1689.5569    802.08887   -1467.2896            0            0            0            0            0   -579.82155   -29.293059 
 1400000    290.57084   -297.09213    881.88008     29416.64    -1420.839    345.58846   -1075.2505   -1635.6006    794.47632    -1420.839            0            0            0            0            0   -579.71472   -28.577806 
 1405000    269.81576    180.68865    879.38884    29499.975   -1377.6349    320.90355   -1056.7313   -1603.4188    805.66748   -1377.6349            0            0            0            0            0   -579.88356   -28.497076 
 1410000    243.07433   -238.91806    892.23418    29075.269   -1442.3495     289.0988   -1153.2507   -1660.5637    798.05105   -1442.3495            0            0            0            0            0   -579.83687   -28.913337 
 1415000    281.38675    59.826633    899.71712     28833.45   -1447.8496    334.66541   -1113.1842   -1665.0855    797.19905   -1447.8496            0            0            0            0            0    -579.9631   -29.155825 
 1420000    264.53245    261.00126    902.53281    28743.497   -1455.1082    314.61987   -1140.4883   -1665.0294    789.88648   -1455.1082            0            0            0            0            0   -579.96524   -29.247069 
 1425000    276.69727   -203.36236    882.82606    29385.119   -1410.8439    329.08802   -1081.7558   -1635.3204    804.17207   -1410.8439            0            0            0            0            0   -579.69555   -28.608461 
 1430000     273.3673    209.72407    900.63786    28803.973   -1446.8883    325.12754   -1121.7608   -1666.5484    799.45537   -1446.8883            0            0            0            0            0   -579.79534   -29.185663 
 1435000    255.99616   -172.99609     882.9782    29380.056   -1412.1379     304.4673   -1107.6706   -1630.1094    797.74309   -1412.1379            0            0            0            0            0    -579.7716   -28.613391 
 1440000    258.18386    219.50983    899.56901    28838.197   -1446.7354    307.06922   -1139.6662   -1662.1463    795.42515   -1446.7354            0            0            0            0            0   -580.01423   -29.151026 
 1445000    283.64651    76.730916    893.60609    29030.631   -1441.9576    337.35305   -1104.6046   -1657.3331    795.25137   -1441.9576            0            0            0            0            0   -579.87585   -28.957794 
 1450000    273.39303    520.40475    905.90874    28636.382   -1456.4012    325.15815   -1131.2431   -1667.0809    790.65225   -1456.4012            0            0            0            0            0   -579.97257   -29.356468 
 1455000    281.96978    319.99465    898.20174    28882.096   -1440.1143    335.35884   -1104.7554   -1655.1447    794.78017   -1440.1143            0            0            0            0            0   -579.74979   -29.106719 
 1460000    280.28601    319.82239    900.52082    28807.717   -1448.2049    333.35626   -1114.8486   -1662.9377    794.19328   -1448.2049            0            0            0            0            0   -579.46042    -29.18187 
 1465000    293.34539   -302.06396    897.43945    28906.628   -1462.5832    348.88835   -1113.6949   -1682.9945    799.97145   -1462.5832            0            0            0            0            0   -579.56018   -29.082016 
 1470000    274.85614    56.713908    901.99195    28760.732   -1460.1436    326.89828   -1133.2454   -1666.5006     786.2585   -1460.1436            0            0            0            0            0   -579.90156   -29.229543 
 1475000    281.01145   -523.56785    891.28032    29106.386   -1451.5904    334.21906   -1117.3713   -1670.1325    798.35024   -1451.5904            0            0            0            0            0   -579.80807   -28.882426 
 1480000    272.47791   -189.35046    897.93892    28890.549   -1465.5877    324.06975   -1141.5179   -1672.1931    786.66961   -1465.5877            0            0            0            0            0   -580.06422   -29.098202 
 1485000    264.92566    120.96496    898.84911    28861.294   -1459.1628    315.08754   -1144.0753   -1665.8324    786.50463   -1459.1628            0            0            0            0            0   -579.83502   -29.127697 
 1490000    264.22655    8.9374598    900.33808    28813.564   -1456.5747    314.25605   -1142.3187   -1665.8452    788.98117   -1456.5747            0            0            0            0            0    -579.7107   -29.175948 
 1495000    272.11951    680.78586    910.38658    28495.531   -1473.4188    323.64349   -1149.7753   -1679.0971    785.56505   -1473.4188            0            0            0            0            0   -579.88675   -29.501575 
 1500000    269.60029   -166.95343    896.04304    28951.677   -1463.7804    320.64727   -1143.1331   -1676.1009    792.26233   -1463.7804            0            0            0            0            0    -579.9418   -29.036765 
 1505000     254.6907    339.97276    895.11854    28981.579   -1433.2756    302.91465    -1130.361   -1649.2605    795.87614   -1433.2756            0            0            0            0            0   -579.89123   -29.006806 
 1510000    303.62005   -12.214363    873.74465    29690.538   -1400.7952    361.10844   -1039.6868   -1608.0907    786.93776   -1400.7952            0            0            0            0            0   -579.64225   -28.314173 
 1515000    280.51466    23.676137    897.70356    28898.124   -1441.0104    333.62821   -1107.3822   -1660.8554    799.41108   -1441.0104            0            0            0            0            0   -579.56613   -29.090575 
 1520000    277.24225    258.46496    897.96625     28889.67   -1444.5876    329.73619   -1114.8515   -1654.7122    789.90124   -1444.5876            0            0            0            0            0   -579.77673   -29.099087 
 1525000    272.97859   -484.33133     883.5188    29362.079   -1429.4533    324.66524    -1104.788   -1646.3388     796.7461   -1429.4533            0            0            0            0            0   -579.86061    -28.63091 
 1530000    286.22646    144.52348    886.73728    29255.507   -1413.8609     340.4215   -1073.4394   -1630.0824     796.0593   -1413.8609            0            0            0            0            0   -579.83779   -28.735206 
 1535000    287.67274    281.38668    879.85329    29484.403    -1390.571    342.14162   -1048.4294   -1608.0149    797.32129    -1390.571            0            0            0            0            0   -579.87741   -28.512127 
 1540000    283.15087     -375.312    874.98003    29648.618   -1407.8643    336.76357   -1071.1007   -1616.6307    788.45343   -1407.8643            0            0            0            0            0   -579.68703   -28.354206 
 1545000    281.07359    357.27508    900.85773    28796.943   -1452.5814    334.29296   -1118.2884   -1665.0364    792.35427   -1452.5814            0            0            0            0            0   -579.89922   -29.192787 
 1550000    278.80837    322.15907     901.4149    28779.143   -1446.6859    331.59884   -1115.0871   -1664.3464    797.66422   -1446.6859            0            0            0            0            0   -580.00375   -29.210843 
 1555000    268.46741   -59.143557    884.08725      29343.2   -1418.3807    319.29989   -1099.0808   -1629.4536    790.88595   -1418.3807            0            0            0            0            0   -579.81299   -28.649331 
 1560000    270.55832    596.49407    893.86676    29022.165   -1413.3858     321.7867   -1091.5991   -1626.9348    793.44641   -1413.3858            0            0            0            0            0   -579.89735   -28.966241 
 1565000    254.71456   -404.86152    885.95124    29281.463   -1429.3259    302.94303   -1126.3828   -1649.7015    800.15619   -1429.3259            0            0            0            0            0    -579.7805   -28.709734 
 1570000    260.66834    48.126587    889.58655    29161.804   -1423.8594    310.02412   -1113.8353   -1644.1072    799.84225   -1423.8594            0            0            0            0            0   -579.59444   -28.827539 
 1575000    273.17264   -44.046105    893.31158    29040.202    -1430.405    324.89602   -1105.5089   -1650.5682    800.06319    -1430.405            0            0            0            0            0   -579.89995    -28.94825 
 1580000    264.27362    475.86541     891.9232    29085.406   -1414.9942    314.31204   -1100.6822   -1628.7346    793.67418   -1414.9942            0            0            0            0            0   -579.93383   -28.903259 
 1585000    274.13077   -190.34708     891.4603    29100.509   -1432.4694    326.03557   -1106.4338   -1651.2151    798.68522   -1432.4694            0            0            0            0            0   -579.93954   -28.888259 
 1590000    263.39664   -139.94004    882.32282    29401.879   -1411.2163      313.269   -1097.9473   -1632.1203    800.87295   -1411.2163            0            0            0            0            0   -579.96893   -28.592153 
 1595000    256.45208   -308.25022    886.30753    29269.692   -1424.4254    305.00954   -1119.4158     -1640.17    795.52971   -1424.4254            0            0            0            0            0   -579.78505    -28.72128 
[...]
 4600000     270.5857    211.92182    904.54989    28679.401   -1465.4002    321.81926    -1143.581    -1677.042    791.68818   -1465.4002            0            0            0            0            0   -580.04645   -29.312434 
 4605000     276.1813   -144.59161    897.12732    28916.686   -1455.8102    328.47436   -1127.3359   -1669.6724    793.94731   -1455.8102            0            0            0            0            0   -580.08514   -29.071901 
 4610000    265.86886   -471.16645    887.13434    29242.413    -1443.095    316.20932   -1126.8857   -1662.5647    799.28409    -1443.095            0            0            0            0            0   -579.81442   -28.748073 
 4615000    268.97044    125.43792    875.37945     29635.09   -1386.3198    319.89816   -1066.4217   -1607.9924    801.37476   -1386.3198            0            0            0            0            0   -579.70218    -28.36715 
 4620000    249.05094    -79.79319    877.21194    29573.182    -1395.036    296.20704    -1098.829   -1613.8279    798.75133    -1395.036            0            0            0            0            0   -579.95949   -28.426533 
 4625000    274.33669   -294.13736    891.15593    29110.448   -1435.4933    326.28048   -1109.2128   -1656.5655    800.66153   -1435.4933            0            0            0            0            0   -579.58931   -28.878395 
 4630000    283.95341    305.53963    904.45217    28682.499   -1455.1513    337.71806   -1117.4332   -1669.0812     793.6186   -1455.1513            0            0            0            0            0   -579.68865   -29.309267 
 4635000    281.04654    54.226531    897.41195    28907.514   -1438.8004     334.2608   -1104.5396   -1658.6119    799.79942   -1438.8004            0            0            0            0            0   -579.98783   -29.081125 
 4640000    270.92877    181.61647    888.09939    29210.637   -1415.4574    322.22729   -1093.2301   -1631.6349    796.05658   -1415.4574            0            0            0            0            0   -579.87909   -28.779346 
 4645000    261.46086    389.27901    894.99029    28985.732   -1420.5323     310.9667   -1109.5656   -1640.6534    799.92646   -1420.5323            0            0            0            0            0   -579.80534    -29.00265 
 4650000    283.37768   -7.6162211    885.59481    29293.248   -1415.1615    337.03332   -1078.1282   -1631.9629     796.5185   -1415.1615            0            0            0            0            0   -579.71707   -28.698184 
 4655000    272.83909    301.89755    884.28644     29336.59   -1401.2696    324.49931   -1076.7703   -1619.8542    798.36149   -1401.2696            0            0            0            0            0   -579.77689   -28.655786 
 4660000    238.38715   -170.23569    884.38118    29333.447   -1418.8915    283.52414   -1135.3674   -1640.8936    802.01609   -1418.8915            0            0            0            0            0   -580.01406   -28.658856 
 4665000     283.9991   -302.95277    893.47177    29034.995   -1456.1665     337.7724   -1118.3941   -1671.8373    795.42386   -1456.1665            0            0            0            0            0   -579.75308   -28.953441 
 4670000    270.75602   -173.21754    887.97778    29214.637   -1430.5589    322.02183    -1108.537   -1642.4815    791.59982   -1430.5589            0            0            0            0            0   -579.67715   -28.775405 
 4675000     283.6374   -408.13632     891.2169    29108.457   -1442.9844    337.34221   -1105.6422   -1663.3237     800.3333   -1442.9844            0            0            0            0            0   -579.99404   -28.880371 
 4680000    274.66255    114.80875    885.37723    29300.447   -1413.0279    326.66804   -1086.3599   -1627.7634    794.57278   -1413.0279            0            0            0            0            0   -579.83736   -28.691133 
 4685000     259.9658    -52.37123    900.85205    28797.124      -1463.8    309.18856   -1154.6115   -1674.7849    790.95128      -1463.8            0            0            0            0            0   -579.96642   -29.192603 
 4690000    257.27149    47.654894    883.92946    29348.438   -1413.6009    305.98409   -1107.6168   -1625.2139    791.27736   -1413.6009            0            0            0            0            0   -579.66438   -28.644218 
 4695000    278.75693   -324.22075    894.29732    29008.192   -1455.3816    331.53767    -1123.844   -1671.6134    796.00699   -1455.3816            0            0            0            0            0   -579.77519   -28.980194 
 4700000    274.24708   -498.57603    879.84346    29484.732   -1417.3791     326.1739   -1091.2052   -1639.0741    801.65363   -1417.3791            0            0            0            0            0   -579.95862   -28.511808 
 4705000    293.83789    588.76555    893.72283    29026.839   -1419.6284     349.4741   -1070.1543   -1629.4726    789.77104   -1419.6284            0            0            0            0            0   -579.92682   -28.961577 
 4710000    283.57255    445.10747    896.45475    28938.381   -1431.9675    337.26509   -1094.7024   -1649.9498    797.89037   -1431.9675            0            0            0            0            0   -579.90804   -29.050106 
 4715000    282.72639    121.51688    904.28763    28687.718   -1455.3126    336.25872   -1119.0539   -1670.5603    794.93694   -1455.3126            0            0            0            0            0    -579.6892   -29.303935 
 4720000    270.50386    397.66753    910.39835    28495.162   -1467.0085    321.72193   -1145.2866   -1682.0353    795.03031   -1467.0085            0            0            0            0            0   -580.00349   -29.501957 
 4725000    292.32783    -7.560404    889.92882    29150.588    -1422.901    347.67812   -1075.2229   -1640.8118    797.87401    -1422.901            0            0            0            0            0   -579.96318    -28.83863 
 4730000    277.51088    247.64502    878.64999    29524.781   -1380.9822    330.05568   -1050.9266   -1605.0744    803.75962   -1380.9822            0            0            0            0            0   -579.66747   -28.473133 
 4735000    247.27137    99.261694    879.52671    29495.351   -1379.9316    294.09052   -1085.8411   -1601.5812    801.32337   -1379.9316            0            0            0            0            0   -579.67378   -28.501544 
 4740000    261.68069     621.9077    900.53417    28807.289   -1435.0816    311.22815   -1123.8534   -1651.2294    795.66468   -1435.0816            0            0            0            0            0   -579.51691   -29.182302 
 4745000    278.35992    -281.8197    888.80882    29187.321   -1428.2746    331.06548   -1097.2091   -1650.5953    801.73673   -1428.2746            0            0            0            0            0   -579.41606   -28.802336 
 4750000    273.76558    22.229053    888.41855    29200.143   -1420.1205    325.60123   -1094.5193   -1638.1774    797.59013   -1420.1205            0            0            0            0            0   -579.53321   -28.789689 
 4755000     277.5201   -423.05103    894.38565    29005.328   -1448.1462    330.06665   -1118.0796   -1666.1116    797.61498   -1448.1462            0            0            0            0            0   -579.64962   -28.983056 
 4760000    266.10251    477.12539    894.43662    29003.675   -1428.2244    316.48721   -1111.7372   -1640.3832    791.93087   -1428.2244            0            0            0            0            0   -579.77201   -28.984708 
 4765000    263.29979    566.46105    904.43836    28682.937   -1460.8365    313.15382   -1147.6826   -1667.9625    786.65435   -1460.8365            0            0            0            0            0   -579.52836    -29.30882 
 4770000    274.03755    28.915888    879.15721    29507.747   -1396.0691     325.9247   -1070.1444    -1619.869     803.6959   -1396.0691            0            0            0            0            0   -579.89598    -28.48957 
 4775000    257.50287   -663.74793    877.03773    29579.057   -1422.0478    306.25929   -1115.7885   -1631.4989    789.38757   -1422.0478            0            0            0            0            0   -579.93647   -28.420887 
 4780000    284.08246    112.55262    895.72015    28962.114   -1438.6207    337.87154   -1100.7492   -1649.6186    791.18718   -1438.6207            0            0            0            0            0   -580.18937   -29.026301 
 4785000    280.40421   -71.299871    892.43665    29068.673   -1444.2628    333.49685    -1110.766   -1651.4681    787.23893   -1444.2628            0            0            0            0            0   -580.03364   -28.919898 
 4790000    288.53304    254.78906    896.39827    28940.204   -1445.6003    343.16481   -1102.4355   -1651.5409    785.70405   -1445.6003            0            0            0            0            0   -579.76338   -29.048276 
 4795000    261.29602   -293.60113    901.28585    28783.264    -1465.461    310.77064   -1154.6904   -1678.3751    792.93436    -1465.461            0            0            0            0            0    -580.0203   -29.206661 
 4800000    272.93296   -315.67675    877.44501    29565.327   -1409.1072    324.61096   -1084.4963   -1629.5616    800.09878   -1409.1072            0            0            0            0            0   -579.64441   -28.434086 
 4805000    264.98832    15.536159    895.07798    28982.892    -1432.013    315.16206    -1116.851   -1651.8969     799.6504    -1432.013            0            0            0            0            0   -579.76656   -29.005492 
 4810000    280.46968   -15.383439      889.565     29162.51   -1431.3371    333.57471   -1097.7624     -1647.65    796.18831   -1431.3371            0            0            0            0            0   -579.87539    -28.82684 
 4815000     262.7852   -316.89057    867.41837    29907.078   -1379.0496    312.54179   -1066.5078   -1599.7325    800.41396   -1379.0496            0            0            0            0            0   -579.73104   -28.109167 
 4820000    278.83537   -151.95769     891.1687    29110.031   -1442.7711    331.63095   -1111.1401   -1663.5213    800.25358   -1442.7711            0            0            0            0            0   -579.50332   -28.878809 
 4825000    265.96191    574.21537    907.46128    28587.389   -1466.0384       316.32   -1149.7184   -1669.4132    783.40033   -1466.0384            0            0            0            0            0   -580.02552   -29.406779 
 4830000    257.63506    104.99106    896.07086    28950.778   -1439.1209    306.41651   -1132.7043    -1649.651    790.53163   -1439.1209            0            0            0            0            0   -580.00153   -29.037666 
 4835000    256.36003    32.883324    871.87596    29754.174   -1360.5638    304.90006   -1055.6638   -1591.6478     810.9044   -1360.5638            0            0            0            0            0   -579.82039   -28.253617 
 4840000    270.12613    123.16336    895.35082     28974.06   -1437.0527    321.27268     -1115.78   -1650.6309    793.22421   -1437.0527            0            0            0            0            0   -579.64608   -29.014333 
 4845000    258.20704    15.250254    893.69944    29027.598    -1433.535    307.09679   -1126.4382   -1654.2832    800.50604    -1433.535            0            0            0            0            0    -579.7578   -28.960819 
 4850000    258.38686   -149.94047    890.77553     29122.88   -1445.1771    307.31066   -1137.8664   -1656.5697    791.22834   -1445.1771            0            0            0            0            0   -579.83575   -28.866068 
 4855000    272.92987    -89.30185    877.46946    29564.503    -1394.588    324.60728   -1069.9808   -1620.3548    805.71387    -1394.588            0            0            0            0            0   -579.94708   -28.434878 
 4860000    261.66386   -614.82284    872.23721     29741.85   -1407.4509    311.20813   -1096.2428   -1619.0065    791.44269   -1407.4509            0            0            0            0            0   -579.88711   -28.265324 
 4865000    250.95599    -373.8022     886.6183    29259.433   -1442.1756     298.4728   -1143.7028   -1655.3136    792.66579   -1442.1756            0            0            0            0            0   -579.52774   -28.731351 
 4870000     281.2212    404.25618    891.42207    29101.757   -1421.4137    334.46852   -1086.9452   -1636.0056    794.09447   -1421.4137            0            0            0            0            0   -579.50258    -28.88702 
 4875000    287.09303    191.87892    900.58335    28805.717   -1461.0977    341.45214   -1119.6456   -1672.0537    790.86614   -1461.0977            0            0            0            0            0    -579.9101   -29.183896 
 4880000    260.42073    34.378743    901.63911    28771.987   -1455.8428    309.72963   -1146.1132   -1668.0732    792.04757   -1455.8428            0            0            0            0            0   -579.81722   -29.218109 
 4885000    261.87244    321.34338     892.1761    29077.162   -1427.1405    311.45621   -1115.6843   -1644.4367    797.05365   -1427.1405            0            0            0            0            0   -579.75744   -28.911454 
 4890000    276.69904    237.02001    901.51959    28775.801   -1447.4716    329.09012   -1118.3815   -1668.7299     800.8653   -1447.4716            0            0            0            0            0   -579.60708   -29.214235 
 4895000    256.66808   -114.47875    884.31355    29335.691   -1413.8103    305.26644   -1108.5439   -1634.5137    800.13154   -1413.8103            0            0            0            0            0    -579.4282   -28.656664 
 4900000    294.51601   -466.48133    886.38603      29267.1   -1427.9776    350.28062    -1077.697   -1656.6455    808.58434   -1427.9776            0            0            0            0            0   -579.91648   -28.723824 
 4905000     271.3151    117.52772     890.6944    29125.532   -1424.9189    322.68677   -1102.2322   -1639.5128    794.37726   -1424.9189            0            0            0            0            0   -579.78336   -28.863439 
 4910000    250.76826   -216.36286    897.31203    28910.733   -1455.0731    298.24953   -1156.8236   -1668.7086    793.49772   -1455.0731            0            0            0            0            0    -579.8622   -29.077887 
 4915000     263.7104   -493.15819    892.10253    29079.559   -1453.7742    313.64217    -1140.132   -1662.4375    788.59539   -1453.7742            0            0            0            0            0   -579.93205    -28.90907 
 4920000    275.21468    -388.1377     886.4269    29265.751   -1432.5239    327.32471   -1105.1991    -1647.569    794.97806   -1432.5239            0            0            0            0            0   -579.93289   -28.725148 
 4925000    276.82827    577.76155    895.49579     28969.37   -1418.7684    329.24382   -1089.5245   -1640.9537    802.02378   -1418.7684            0            0            0            0            0   -579.83848   -29.019031 
 4930000    269.29049   -201.65022    892.45081    29068.211   -1429.4221    320.27882   -1109.1433   -1650.8214    801.37275   -1429.4221            0            0            0            0            0    -579.9735   -28.920356 
 4935000    277.50906   -131.60297    884.41009    29332.488   -1415.6176    330.05352   -1085.5641   -1635.2377    799.49102   -1415.6176            0            0            0            0            0   -579.87096   -28.659793 
 4940000    260.75384   -38.426456    887.94359    29215.762   -1420.7816    310.12581   -1110.6558     -1638.14    797.16143   -1420.7816            0            0            0            0            0   -579.80304   -28.774298 
 4945000    280.73465    394.19716    892.80593    29056.649   -1423.6143    333.88985   -1089.7245    -1642.294    798.58885   -1423.6143            0            0            0            0            0   -579.90913   -28.931865 
 4950000    290.60427     363.3867    889.16044    29175.779   -1419.6774    345.62822   -1074.0492   -1626.9055    787.25143   -1419.6774            0            0            0            0            0   -580.02337    -28.81373 
 4955000    275.37328   -23.026197    887.47612    29231.151   -1427.5821    327.51334   -1100.0687   -1637.7098    789.98541   -1427.5821            0            0            0            0            0   -579.85771   -28.759149 
 4960000    242.14474   -7.7944144     889.1739    29175.337   -1411.4328     287.9932   -1123.4396   -1632.8669    801.27761   -1411.4328            0            0            0            0            0   -579.84357   -28.814167 
 4965000     261.2156    960.55202    907.77178    28577.611   -1439.9049      310.675   -1129.2299   -1652.9553    792.85199   -1439.9049            0            0            0            0            0   -579.80154   -29.416841 
 4970000    257.69316    240.66871     889.6841    29158.607   -1418.5543    306.48561   -1112.0686   -1631.9081    793.22385   -1418.5543            0            0            0            0            0   -579.86998     -28.8307 
 4975000    264.70287    310.73471    894.47089    29002.563   -1427.5633    314.82256   -1112.7407   -1646.4723    798.74136   -1427.5633            0            0            0            0            0   -579.83239   -28.985819 
 4980000     270.1878   -317.09011    889.27046    29172.169   -1438.4298    321.34603   -1117.0838    -1650.074    791.57938   -1438.4298            0            0            0            0            0    -579.9352   -28.817296 
 4985000    281.98954    67.844298    895.84645     28958.03   -1438.9732    335.38235   -1103.5909   -1654.1205    794.81208   -1438.9732            0            0            0            0            0   -579.66473   -29.030394 
 4990000    263.63043   -299.77579    887.88892    29217.561   -1433.9611    313.54706   -1120.4141    -1649.854    795.59031   -1433.9611            0            0            0            0            0   -579.69749   -28.772526 
 4995000    263.44687   -435.23322    889.88478    29152.031   -1453.4688    313.32874   -1140.1401    -1664.252    790.77095   -1453.4688            0            0            0            0            0   -579.98779   -28.837203 
 5000000    278.68865    630.75837    913.34671    28403.177   -1476.9615    331.45645   -1145.5051   -1687.5083    790.18293   -1476.9615            0            0            0            0            0   -579.63615     -29.5975 
Loop time of 302582 on 1 procs for 5000000 steps with 2400 atoms

Performance: 1.428 ns/day, 16.810 hours/ns, 16.524 timesteps/s
100.0% CPU use with 1 MPI tasks x 1 OpenMP threads

MPI task timing breakdown:
Section |  min time  |  avg time  |  max time  |%varavg| %total
---------------------------------------------------------------
Pair    | 2.8094e+05 | 2.8094e+05 | 2.8094e+05 |   0.0 | 92.85
Bond    | 9.7845     | 9.7845     | 9.7845     |   0.0 |  0.00
Kspace  | 8981.5     | 8981.5     | 8981.5     |   0.0 |  2.97
Neigh   | 7385.7     | 7385.7     | 7385.7     |   0.0 |  2.44
Comm    | 806.5      | 806.5      | 806.5      |   0.0 |  0.27
Output  | 0.075514   | 0.075514   | 0.075514   |   0.0 |  0.00
Modify  | 4292       | 4292       | 4292       |   0.0 |  1.42
Other   |            | 165.6      |            |       |  0.05

Nlocal:        2400.00 ave        2400 max        2400 min
Histogram: 1 0 0 0 0 0 0 0 0 0
Nghost:        19602.0 ave       19602 max       19602 min
Histogram: 1 0 0 0 0 0 0 0 0 0
Neighs:    1.95722e+06 ave 1.95722e+06 max 1.95722e+06 min
Histogram: 1 0 0 0 0 0 0 0 0 0

Total # of neighbors = 1957224
Ave neighs/atom = 815.51000
Ave special neighs/atom = 8.5000000
Neighbor list builds = 73736
Dangerous builds = 0
Total wall time: 101:01:35
