LAMMPS (29 Sep 2021 - Update 2)
OMP_NUM_THREADS environment is not set. Defaulting to 1 thread. (src/comm.cpp:98)
  using 1 OpenMP thread(s) per MPI task
Reading data file ...
  orthogonal box = (-15.466318 -15.466318 -15.466318) to (15.466318 15.466318 15.466318)
  1 by 1 by 1 MPI processor grid
  reading atoms ...
  2400 atoms
  scanning bonds ...
  3 = max bonds/atom
  scanning angles ...
  3 = max angles/atom
  scanning dihedrals ...
  4 = max dihedrals/atom
  reading bonds ...
  2400 bonds
  reading angles ...
  3600 angles
  reading dihedrals ...
  3600 dihedrals
Finding 1-2 1-3 1-4 neighbors ...
  special bond factors lj:    0        0        0       
  special bond factors coul:  0        0        0       
     3 = max # of 1-2 neighbors
     4 = max # of 1-3 neighbors
     8 = max # of 1-4 neighbors
    10 = max # of special neighbors
  special bonds CPU = 0.001 seconds
  read_data CPU = 0.014 seconds
  200 rigid bodies with 2400 atoms
PPPM initialization ...
  using 12-bit tables for long-range coulomb (src/kspace.cpp:340)
  G vector (1/distance) = 0.1428774
  grid = 6 6 6
  stencil order = 5
  estimated absolute RMS force accuracy = 0.0078609937
  estimated relative force accuracy = 2.3673149e-05
  using double precision FFTW3
  3d grid and FFT values/proc = 1331 216
Neighbor list info ...
  update every 1 steps, delay 10 steps, check yes
  max neighbors/atom: 2000, page size: 100000
  master list distance cutoff = 16.655
  ghost atom cutoff = 16.655
  binsize = 8.3275, bins = 4 4 4
  1 neighbor lists, perpetual/occasional/extra = 1 0 0
  (1) pair lj/cut/coul/long, perpetual
      attributes: half, newton on
      pair build: half/bin/newton
      stencil: half/bin/3d
      bin: standard
Setting up Verlet run ...
  Unit style    : real
  Current step  : 0
  Time step     : 1
Per MPI rank memory allocation (min/avg/max) = 29.12 | 29.12 | 29.12 Mbytes
Step Temp E_pair E_mol TotEng Press 
       0    301.50765     12647.25            0    13005.846    97602.094 
    5000    9557.2826     1628.218            0    12995.107    72086.103 
Loop time of 195.852 on 1 procs for 5000 steps with 2400 atoms

Performance: 2.206 ns/day, 10.881 hours/ns, 25.529 timesteps/s
100.0% CPU use with 1 MPI tasks x 1 OpenMP threads

MPI task timing breakdown:
Section |  min time  |  avg time  |  max time  |%varavg| %total
---------------------------------------------------------------
Pair    | 163.21     | 163.21     | 163.21     |   0.0 | 83.33
Bond    | 0.0054116  | 0.0054116  | 0.0054116  |   0.0 |  0.00
Kspace  | 4.8736     | 4.8736     | 4.8736     |   0.0 |  2.49
Neigh   | 26.18      | 26.18      | 26.18      |   0.0 | 13.37
Comm    | 0.71107    | 0.71107    | 0.71107    |   0.0 |  0.36
Output  | 3.0657e-05 | 3.0657e-05 | 3.0657e-05 |   0.0 |  0.00
Modify  | 0.76701    | 0.76701    | 0.76701    |   0.0 |  0.39
Other   |            | 0.1023     |            |       |  0.05

Nlocal:        2400.00 ave        2400 max        2400 min
Histogram: 1 0 0 0 0 0 0 0 0 0
Nghost:        19245.0 ave       19245 max       19245 min
Histogram: 1 0 0 0 0 0 0 0 0 0
Neighs:    1.88158e+06 ave 1.88158e+06 max 1.88158e+06 min
Histogram: 1 0 0 0 0 0 0 0 0 0

Total # of neighbors = 1881581
Ave neighs/atom = 783.99208
Ave special neighs/atom = 8.5000000
Neighbor list builds = 429
Dangerous builds = 47
  create bodies CPU = 0.000 seconds
  200 rigid bodies with 2400 atoms
  3.8930170 = max distance from body owner to body atom
PPPM initialization ...
  using 12-bit tables for long-range coulomb (src/kspace.cpp:340)
  G vector (1/distance) = 0.1428774
  grid = 6 6 6
  stencil order = 5
  estimated absolute RMS force accuracy = 0.0078609937
  estimated relative force accuracy = 2.3673149e-05
  using double precision FFTW3
  3d grid and FFT values/proc = 1331 216
Setting up Verlet run ...
  Unit style    : real
  Current step  : 5000
  Time step     : 1
Per MPI rank memory allocation (min/avg/max) = 37.12 | 37.12 | 37.12 Mbytes
Step Temp E_pair E_mol TotEng Press Volume 
    5000    9557.2826     1628.218            0    12995.107    97545.137    29597.212 
 1005000     313.6892   -1265.6975            0   -892.61334    90.568926    31137.618 
Loop time of 33534.1 on 1 procs for 1000000 steps with 2400 atoms

Performance: 2.576 ns/day, 9.315 hours/ns, 29.820 timesteps/s
100.0% CPU use with 1 MPI tasks x 1 OpenMP threads

MPI task timing breakdown:
Section |  min time  |  avg time  |  max time  |%varavg| %total
---------------------------------------------------------------
Pair    | 30945      | 30945      | 30945      |   0.0 | 92.28
Bond    | 1.8827     | 1.8827     | 1.8827     |   0.0 |  0.01
Kspace  | 981.96     | 981.96     | 981.96     |   0.0 |  2.93
Neigh   | 914.42     | 914.42     | 914.42     |   0.0 |  2.73
Comm    | 105.3      | 105.3      | 105.3      |   0.0 |  0.31
Output  | 3.0199e-05 | 3.0199e-05 | 3.0199e-05 |   0.0 |  0.00
Modify  | 559.3      | 559.3      | 559.3      |   0.0 |  1.67
Other   |            | 25.79      |            |       |  0.08

Nlocal:        2400.00 ave        2400 max        2400 min
Histogram: 1 0 0 0 0 0 0 0 0 0
Nghost:        18630.0 ave       18630 max       18630 min
Histogram: 1 0 0 0 0 0 0 0 0 0
Neighs:    1.78844e+06 ave 1.78844e+06 max 1.78844e+06 min
Histogram: 1 0 0 0 0 0 0 0 0 0

Total # of neighbors = 1788435
Ave neighs/atom = 745.18125
Ave special neighs/atom = 8.5000000
Neighbor list builds = 15964
Dangerous builds = 1
PPPM initialization ...
  using 12-bit tables for long-range coulomb (src/kspace.cpp:340)
  G vector (1/distance) = 0.14177674
  grid = 6 6 6
  stencil order = 5
  estimated absolute RMS force accuracy = 0.0081989427
  estimated relative force accuracy = 2.4690872e-05
  using double precision FFTW3
  3d grid and FFT values/proc = 1331 216
Setting up Verlet run ...
  Unit style    : real
  Current step  : 0
  Time step     : 1
Per MPI rank memory allocation (min/avg/max) = 37.13 | 37.13 | 37.13 Mbytes
Step Temp Press v_dens Volume PotEng KinEng TotEng E_vdwl E_coul E_pair E_bond E_angle E_dihed E_impro E_mol E_long E_tail 
       0     313.6892   -204.21579    833.13851    31137.618   -1265.7324    373.08412    -892.6483   -1497.7102    806.20398   -1265.7324            0            0            0            0            0   -574.22623   -26.998309 
    5000     293.1122   -315.87843    853.62395    30390.371   -1329.5991    348.61101   -980.98805   -1558.7317    803.68424   -1329.5991            0            0            0            0            0   -574.55162   -27.662151 
   10000    302.78498    84.751245    850.65777     30496.34   -1308.9902    360.11527   -948.87493   -1539.3925    804.75155   -1308.9902            0            0            0            0            0   -574.34922    -27.56603 
   15000    314.22216    580.90797     864.9282    29993.182   -1331.2278      373.718    -957.5098   -1554.8948    797.83497   -1331.2278            0            0            0            0            0     -574.168   -28.028471 
   20000    305.86913   -647.54338      847.946    30593.869     -1331.09    363.78337    -967.3066   -1558.6558    802.04572     -1331.09            0            0            0            0            0   -574.47989   -27.478154 
   25000     326.4032   -96.135698     853.2046    30405.308   -1321.5041    388.20543    -933.2987   -1550.6008    803.47349   -1321.5041            0            0            0            0            0   -574.37683   -27.648562 
   30000    320.21035     416.0491    845.86325    30669.199   -1298.2634       380.84   -917.42341   -1515.4298     791.4461   -1298.2634            0            0            0            0            0   -574.27967   -27.410661 
   35000    294.87917   -79.709325    863.74431    30034.292   -1351.8307    350.71254   -1001.1182   -1571.8398     794.2566   -1351.8307            0            0            0            0            0   -574.24755   -27.990107 
   40000    332.03631    131.28242     837.2982    30982.927   -1278.6728    394.90513   -883.76763   -1506.9488    802.57131   -1278.6728            0            0            0            0            0   -574.29525   -27.133106 
   45000    314.13284     159.5405    852.91815    30415.519   -1315.0502    373.61176   -941.43843   -1542.7237    802.07821   -1315.0502            0            0            0            0            0   -574.40472   -27.639279 
   50000    323.18623   -9.0341673    860.82466    30136.159   -1340.3509    384.37935   -955.97152   -1562.3769    796.55396   -1340.3509            0            0            0            0            0   -574.52792   -27.895494 
   55000    311.62781   -155.64713     861.7002    30105.539   -1354.0307    370.63242   -983.39832   -1575.6547     795.8239   -1354.0307            0            0            0            0            0   -574.19995   -27.923866 
   60000    293.33395   -713.35445    837.05394    30991.968   -1312.4923    348.87474   -963.61751   -1529.6251      791.511   -1312.4923            0            0            0            0            0   -574.37813   -27.125191 
   65000     312.8197   -229.71822     847.3621     30614.95   -1317.4695    372.04999   -945.41952   -1542.0022    799.00591   -1317.4695            0            0            0            0            0   -574.47324   -27.459232 
   70000    317.37831    486.18031    864.98012    29991.381   -1328.6138    377.47174   -951.14209   -1558.7733    804.54488   -1328.6138            0            0            0            0            0   -574.38538   -28.030154 
   75000    296.73644    278.32087     845.3372    30688.285   -1298.4919    352.92147   -945.57046    -1519.456    795.39939   -1298.4919            0            0            0            0            0   -574.43536   -27.393614 
   80000     299.5546    -95.45186    841.87333    30814.551   -1297.6577    356.27323   -941.38451   -1520.0945    796.87573   -1297.6577            0            0            0            0            0   -574.43894   -27.281366 
   85000    311.47119   -62.336778    850.97768    30484.875   -1320.7831    370.44615   -950.33695   -1541.4483    795.07941   -1320.7831            0            0            0            0            0   -574.41416   -27.576397 
   90000    328.12485    252.07331    837.60635    30971.528   -1271.8667    390.25306   -881.61359   -1497.5326    800.30026   -1271.8667            0            0            0            0            0   -574.63435   -27.143092 
   95000    301.51877    145.30817    855.59357    30320.411   -1311.1613     358.6093   -952.55195   -1538.9977    802.16049   -1311.1613            0            0            0            0            0   -574.32408   -27.725977 
  100000    317.35903    162.35911    836.47536    31013.404   -1285.5561     377.4488   -908.10731   -1499.0122    787.93015   -1285.5561            0            0            0            0            0   -574.47409   -27.106441 
  105000    315.16507    91.798309    843.79463    30744.387    -1291.737    374.83944   -916.89752   -1517.4374    799.99532    -1291.737            0            0            0            0            0   -574.29491   -27.343626 
  110000    304.32197   -397.85326    849.65531    30532.321   -1318.8248    361.94327   -956.88156   -1548.9695    804.75684   -1318.8248            0            0            0            0            0   -574.61219   -27.533545 
  115000    311.28966    165.67221      859.551    30180.814     -1330.08    370.23025   -959.84977   -1556.9398      801.147     -1330.08            0            0            0            0            0   -574.28722    -27.85422 
  120000    300.19015    257.84729    844.78918    30708.192   -1285.7442    357.02912   -928.71511   -1511.9203    800.58477   -1285.7442            0            0            0            0            0   -574.40874   -27.375855 
  125000    313.04825   -100.30512    835.39627    31053.465   -1279.4601    372.32181   -907.13834   -1504.0758    799.08794   -1279.4601            0            0            0            0            0   -574.47225   -27.071473 
  130000    295.19003   -454.94992     831.7362    31190.116   -1283.3655    351.08226   -932.28322   -1508.7943    799.92462   -1283.3655            0            0            0            0            0   -574.49579   -26.952866 
  135000    297.24231     43.91765    852.29789    30437.654   -1308.9322    353.52313   -955.40904   -1540.8693    806.18798   -1308.9322            0            0            0            0            0   -574.25087   -27.619179 
  140000     334.9377   -8.6644058    858.66257    30212.041   -1339.2634    398.35587    -940.9075   -1560.3586    795.59326   -1339.2634            0            0            0            0            0   -574.49805    -27.82543 
  145000    310.13872    359.96636    863.26667    30050.909   -1333.8126    368.86138   -964.95121   -1556.6149    797.24429   -1333.8126            0            0            0            0            0     -574.442   -27.974629 
  150000    311.54901    39.545623    837.05396    30991.967   -1290.9703    370.53871   -920.43155   -1515.6381    799.13923   -1290.9703            0            0            0            0            0    -574.4714   -27.125191 
  155000    320.81612    314.76876    854.39541    30362.931   -1304.9873    381.56047   -923.42685   -1537.1761    806.49961   -1304.9873            0            0            0            0            0   -574.31086   -27.687151 
  160000    306.97556   -160.78776    840.01079    30882.875   -1308.9849     365.0993   -943.88556   -1533.5096    798.80473   -1308.9849            0            0            0            0            0   -574.27999   -27.221009 
  165000    292.66913    379.23292    849.30175    30545.032   -1281.7202    348.08404   -933.63619   -1517.1253    809.80596   -1281.7202            0            0            0            0            0   -574.40089   -27.522088 
  170000    336.96297   -34.255652    841.69981    30820.903   -1303.8899    400.76462   -903.12532   -1524.0219    794.46293   -1303.8899            0            0            0            0            0   -574.33094   -27.275743 
  175000    319.24446   -70.900818    839.66024    30895.769   -1291.3912    379.69123       -911.7   -1523.1722    805.94128   -1291.3912            0            0            0            0            0   -574.16034   -27.209649 
  180000     288.6363    -372.5395    836.34996    31018.054   -1277.6652    343.28762   -934.37757   -1517.0675    813.71509   -1277.6652            0            0            0            0            0   -574.31277   -27.102378 
  185000    308.68377    360.76875    851.67319     30459.98    -1304.054    367.13094   -936.92309   -1525.4477    795.78918    -1304.054            0            0            0            0            0   -574.39554   -27.598935 
  190000    319.79219      23.7518    838.73987    30929.672    -1288.832    380.34268    -908.4893   -1515.2337    800.74529    -1288.832            0            0            0            0            0    -574.3436   -27.179824 
  195000     298.1486    80.549318    841.30644    30835.315   -1289.6535    354.60102   -935.05248   -1511.3731    795.91992   -1289.6535            0            0            0            0            0   -574.20032   -27.262995 
  200000    286.54605    357.84265    853.56762    30392.377   -1316.6755     340.8016   -975.87392   -1534.9862    792.86603   -1316.6755            0            0            0            0            0   -574.55532   -27.660326 
  205000    302.26842   -364.47472     833.5216    31123.307   -1279.0941    359.50089   -919.59321   -1513.0941    808.15428   -1279.0941            0            0            0            0            0   -574.15432   -27.010723 
  210000    282.55657    775.77541    869.90545    29821.573   -1329.5706    336.05674   -993.51383   -1560.2353    804.95365   -1329.5706            0            0            0            0            0   -574.28892   -28.189762 
  215000    297.39324    466.63152    842.84434    30779.051   -1274.2355    353.70263   -920.53285   -1508.0827    807.95113   -1274.2355            0            0            0            0            0   -574.10391   -27.312832 
  220000    328.98735     194.6252    856.04573    30304.396   -1330.3153    391.27887    -939.0364   -1544.2562    788.43083   -1330.3153            0            0            0            0            0   -574.48988    -27.74063 
  225000    310.79005   -172.19882     861.3241    30118.684   -1356.3813    369.63604   -986.74528   -1580.8889    798.98318   -1356.3813            0            0            0            0            0   -574.47562   -27.911678 
  230000    313.08578   0.52092612    841.71896    30820.202   -1279.4222    372.36645    -907.0558   -1510.3401    805.35539   -1279.4222            0            0            0            0            0   -574.43755   -27.276363 
  235000    320.36153   -185.22595    848.82701    30562.115   -1313.2605    381.01981   -932.24069   -1545.2786    806.17917   -1313.2605            0            0            0            0            0   -574.16103   -27.506704 
  240000     335.5748    -165.5595    834.86897    31073.078    -1281.257    399.11362   -882.14338    -1511.409    804.27797    -1281.257            0            0            0            0            0   -574.12592   -27.054386 
  245000    313.66821   -127.36454    856.73622    30279.972   -1342.0865    373.05915   -969.02736   -1564.7942    797.14825   -1342.0865            0            0            0            0            0   -574.44058   -27.763006 
  250000    330.41748   -461.29074    842.75029    30782.486    -1310.672    392.97978   -917.69221   -1536.7076     800.5938    -1310.672            0            0            0            0            0   -574.55814   -27.309784 
  255000    312.97279     3.298692    841.24497    30837.568   -1294.1648    372.23207    -921.9327   -1516.2064    796.43374   -1294.1648            0            0            0            0            0   -574.39207   -27.261003 
  260000    336.78039   -255.34474    833.01202    31142.346   -1277.5246    400.54747   -876.97716   -1505.2791    802.11565   -1277.5246            0            0            0            0            0   -574.36121    -26.99421 
  265000    307.77774    161.50342     861.5831     30109.63   -1335.3506    366.05336   -969.29723   -1564.1184    803.36486   -1335.3506            0            0            0            0            0   -574.59701   -27.920072 
  270000    307.99568    148.70099    860.46531    30148.744   -1334.7938    366.31257   -968.48124   -1563.4753    802.62653   -1334.7938            0            0            0            0            0   -573.94501   -27.883849 
  275000     328.4827   -71.611282    854.45428    30360.839   -1322.5889    390.67867   -931.91028   -1549.6253    801.54621   -1322.5889            0            0            0            0            0    -574.5099   -27.689058 
  280000     311.4095   -149.88706    850.42853    30504.561   -1324.0597    370.37277   -953.68696   -1542.4737    792.85542   -1324.0597            0            0            0            0            0   -574.44142   -27.558601 
  285000    313.22533   -409.42271    858.89697    30203.796   -1347.9817    372.53242   -975.44927   -1572.8191    799.19076   -1347.9817            0            0            0            0            0   -574.35338   -27.833026 
  290000    308.51973   -359.54114    841.06311    30844.236    -1307.402    366.93584    -940.4662   -1533.5768    800.54189    -1307.402            0            0            0            0            0   -574.36714    -27.25511 
  295000    324.07307    100.97466     844.5745    30715.998    -1296.213     385.4341    -910.7789   -1523.0006    801.13966    -1296.213            0            0            0            0            0    -574.3521   -27.368899 
  300000    334.73573   -93.623358    844.34485    30724.352   -1308.4387    398.11567   -910.32306   -1532.9673    799.09872   -1308.4387            0            0            0            0            0   -574.57017   -27.361457 
  305000     312.4615    832.79201    856.94153    30272.717   -1291.8582    371.62396   -920.23423   -1526.9177    809.47929   -1291.8582            0            0            0            0            0   -574.41979   -27.769659 
  310000    294.23664    275.48093     852.1119    30444.298   -1303.1154    349.94835   -953.16704   -1531.4368    802.73916   -1303.1154            0            0            0            0            0   -574.41775   -27.613152 
  315000    324.03259   -322.00085    853.07037    30410.092    -1333.597    385.38596   -948.21104   -1557.9831    798.87983    -1333.597            0            0            0            0            0   -574.49375   -27.644212 
  320000    306.67556    51.547403    872.89416    29719.466   -1375.0809     364.7425   -1010.3384   -1602.3557     801.7742   -1375.0809            0            0            0            0            0   -574.49942   -28.286613 
  325000    299.57169    -99.83707    837.99679    30957.098   -1279.8495    356.29356   -923.55595   -1514.4723    809.06992   -1279.8495            0            0            0            0            0    -574.4471   -27.155744 
  330000    295.05986   -54.623791    851.34034    30471.889   -1308.3212    350.92744   -957.39381   -1539.8957    805.56028   -1308.3212            0            0            0            0            0   -573.98585   -27.588149 
  335000    316.18438    70.472731     838.2882    30946.336   -1287.2201    376.05174    -911.1684   -1510.0923    797.36141   -1287.2201            0            0            0            0            0   -574.48925   -27.165188 
  340000     312.4509    63.402866    847.88239    30596.164   -1301.6554    371.61136   -930.04409   -1532.4677    805.10944   -1301.6554            0            0            0            0            0   -574.29719   -27.476093 
  345000    304.70004   -417.02452    846.39754    30649.839   -1311.9189    362.39292   -949.52596   -1542.7284    805.05712   -1311.9189            0            0            0            0            0   -574.24762   -27.427975 
  350000    331.78422    230.71992    869.33777    29841.046   -1361.7715     394.6053   -967.16621   -1585.4674    798.06722   -1361.7715            0            0            0            0            0   -574.37132   -28.171366 
  355000    308.40722    234.00086    846.06939    30661.727   -1288.2305    366.80203   -921.42851   -1516.0498    802.25707   -1288.2305            0            0            0            0            0   -574.43782   -27.417341 
  360000    319.11136    66.704844    861.25807    30120.993   -1349.2207    379.53293   -969.68777   -1570.9573    796.04502   -1349.2207            0            0            0            0            0   -574.30843   -27.909539 
  365000    293.25684    183.19002    851.04724    30482.384   -1305.9811    348.78303   -957.19812   -1532.9673    801.45393   -1305.9811            0            0            0            0            0   -574.46776   -27.578651 
  370000    303.27687    2.6110976    867.71845    29896.735   -1360.5202    360.70028   -999.81992    -1584.673      798.434   -1360.5202            0            0            0            0            0   -574.28124   -28.118891 
  375000    307.48629   -87.398022    846.88171    30632.316   -1311.6853    365.70673   -945.97856   -1534.2917    796.86745   -1311.6853            0            0            0            0            0   -574.26107   -27.443665 
  380000    306.34273   -492.98349    843.49497    30755.309    -1319.269    364.34665   -954.92237   -1542.9359    798.26157    -1319.269            0            0            0            0            0   -574.59472   -27.333916 
  385000    288.47275   -394.69762    834.79194    31075.945   -1281.8712    343.09311   -938.77806   -1508.9062    801.37971   -1281.8712            0            0            0            0            0   -574.34466   -27.051889 
  390000    305.64823   -89.682928    857.20761    30263.321   -1336.2278    363.52065   -972.70713    -1559.038    796.94793   -1336.2278            0            0            0            0            0   -574.13767   -27.778281 
  395000    335.71142   -207.79255    847.84968    30597.344   -1313.0304     399.2761   -913.75427   -1539.7164     801.1238   -1313.0304            0            0            0            0            0   -574.43779   -27.475033 
  400000    313.32292    232.61544    847.72894    30601.702   -1295.8788    372.64849   -923.23035   -1517.7854    796.19364   -1295.8788            0            0            0            0            0   -574.28707    -27.47112 
  405000    294.22473   -286.94482    836.31471    31019.362   -1300.1667    349.93418    -950.2325   -1523.3868    797.48556   -1300.1667            0            0            0            0            0   -574.26547   -27.101235 
  410000    308.70279   -344.49159    856.33802    30294.052   -1337.4042    367.15356   -970.25069   -1566.6367     803.2147   -1337.4042            0            0            0            0            0   -573.98229   -27.750102 
  415000     326.5584    190.38436    833.17895    31136.107   -1256.4453    388.39001   -868.05526   -1486.6502    804.42864   -1256.4453            0            0            0            0            0   -574.22374    -26.99962 
  420000    291.64482    347.51616    843.81899    30743.499   -1288.4305    346.86579   -941.56468   -1514.1467    799.86176   -1288.4305            0            0            0            0            0   -574.14556   -27.344416 
  425000    312.61913   -543.10479    823.24973     31511.64   -1257.6385    371.81144   -885.82703   -1492.2742    808.90965   -1257.6385            0            0            0            0            0   -574.27392   -26.677858 
  430000     294.1656   -264.56032    860.56662    30145.195   -1340.8157    349.86386   -990.95181   -1567.2743    800.72772   -1340.8157            0            0            0            0            0   -574.26911   -27.887132 
  435000    303.76371    12.583794    841.62501    30823.643   -1285.1982    361.27931   -923.91887   -1519.2249    808.50434   -1285.1982            0            0            0            0            0   -574.47763   -27.273319 
  440000    312.16899    382.37898    846.80826    30634.974   -1278.6193    371.27606   -907.34322   -1512.2914    808.07334   -1278.6193            0            0            0            0            0   -574.40118   -27.441285 
  445000    311.08648   -546.44595    851.39752    30469.843   -1329.3813     369.9886   -959.39273   -1557.9593    803.10937   -1329.3813            0            0            0            0            0   -574.53139   -27.590002 
  450000    319.24146   -197.77723    854.86636    30346.203   -1325.6022    379.68767   -945.91457   -1556.3569    805.04853   -1325.6022            0            0            0            0            0   -574.29383   -27.702412 
  455000     326.1521    24.596371    859.16384    30194.414   -1345.1788    387.90679   -957.27203   -1571.2284    800.45893   -1345.1788            0            0            0            0            0   -574.40933   -27.841674 
  460000    343.85024   -45.852961    844.94144    30702.659   -1300.8221    408.95595   -891.86615   -1528.1876    801.83303   -1300.8221            0            0            0            0            0   -574.46753    -27.38079 
  465000    322.22492    554.18969    860.53112    30146.439   -1320.3011    383.23602   -937.06509   -1549.2819    803.13309   -1320.3011            0            0            0            0            0   -574.15229   -27.885981 
  470000    313.64787    89.069669    833.92444    31108.272   -1271.1318    373.03496   -898.09682   -1502.5619    805.89824   -1271.1318            0            0            0            0            0    -574.4681   -27.023777 
  475000    282.65325   -35.064118    859.90225    30168.486   -1340.2753    336.17173   -1004.1036   -1571.6684     805.7456   -1340.2753            0            0            0            0            0   -574.35252   -27.865603 
  480000    313.87753    332.92014    858.57037    30215.285   -1321.0818    373.30811   -947.77367   -1546.3666     799.7182   -1321.0818            0            0            0            0            0   -574.43333   -27.822442 
  485000    322.34398    328.82797    841.26812    30836.719    -1273.853    383.37763   -890.47542   -1495.5899    796.14141    -1273.853            0            0            0            0            0   -574.40455   -27.261753 
  490000    305.73265    322.02669    863.67706    30036.631   -1348.5987    363.62106   -984.97763   -1569.6478    795.49669   -1348.5987            0            0            0            0            0    -574.4476   -27.987927 
  495000    304.08502    335.89862    844.34182    30724.462   -1283.8661    361.66145    -922.2046   -1510.1138    800.59753   -1283.8661            0            0            0            0            0   -574.34975   -27.361359 
  500000    303.25933    514.41596    858.43668    30219.991   -1320.2132    360.67942   -959.53379   -1535.4244    789.76683   -1320.2132            0            0            0            0            0   -574.55569    -27.81811 
  505000    293.62102   -21.190962    853.72323    30386.837   -1315.6221    349.21616   -966.40596   -1544.4935    803.16901   -1315.6221            0            0            0            0            0   -574.29765   -27.665368 
  510000     314.1603   -315.98416    843.97279    30737.897   -1304.5868    373.64442   -930.94236   -1537.9214    807.91461   -1304.5868            0            0            0            0            0   -574.58003     -27.3494 
  515000    299.72925    83.884974    853.91491    30380.016   -1315.9779    356.48094   -959.49694   -1551.4118    809.78654   -1315.9779            0            0            0            0            0   -574.35265    -27.67158 
  520000    283.95843    402.84277     843.2211    30765.298   -1278.2469    337.72404   -940.52283   -1502.4508      798.473   -1278.2469            0            0            0            0            0   -574.26906   -27.325041 
  525000    310.86522    12.990024    850.15164    30514.496   -1310.0629    369.72544   -940.33743   -1537.2609     801.6407   -1310.0629            0            0            0            0            0   -574.44264   -27.549629 
  530000    310.28481   -443.47817    837.83637    30963.025   -1305.9098    369.03513   -936.87469   -1528.9915    797.59373   -1305.9098            0            0            0            0            0   -574.51209   -27.150546 
  535000     301.9254   -300.10212    839.68267    30894.943   -1294.9434    359.09292   -935.85045   -1522.9137    802.52851   -1294.9434            0            0            0            0            0   -574.55818   -27.210376 
  540000    296.10757   -30.968939    840.82695    30852.899   -1286.6971    352.17353   -934.52356   -1513.3205    801.16193   -1286.6971            0            0            0            0            0    -574.5385   -27.247457 
  545000    308.86408    104.32232    848.89293    30559.742   -1313.0208    367.34539   -945.67537   -1540.3234      801.694   -1313.0208            0            0            0            0            0   -574.39134    -27.50884 
  550000    310.14748    59.323225    853.58568    30391.734   -1314.6117     368.8718   -945.73989   -1536.1042    795.82224   -1314.6117            0            0            0            0            0   -574.32971   -27.660911 
  555000     309.4356   -80.642884    864.52213    30007.269    -1359.938    368.02513   -991.91291   -1581.4909    795.99998    -1359.938            0            0            0            0            0   -574.44708   -28.015313 
  560000    310.71814    3.0283971     856.7086    30280.948   -1334.9282    369.55051    -965.3777   -1560.8929    800.44791   -1334.9282            0            0            0            0            0   -574.48327   -27.762111 
  565000    320.99161    661.25477     868.7353    29861.741   -1335.0399    381.76919    -953.2707   -1555.8049    795.39197   -1335.0399            0            0            0            0            0   -574.62693   -28.151843 
  570000     282.6931    62.250312    853.03501    30411.353   -1312.0111    336.21912   -975.79195   -1542.3752    804.55566   -1312.0111            0            0            0            0            0   -574.19148   -27.643066 
  575000    303.30771    146.42552    851.69982    30459.028   -1318.6118    360.73697   -957.87487    -1536.039     791.9497   -1318.6118            0            0            0            0            0    -574.5225   -27.599798 
  580000     333.9594   -107.84299    844.47371    30719.664   -1297.9582    397.19235   -900.76584   -1524.2748    800.76684   -1297.9582            0            0            0            0            0    -574.4502   -27.365632 
  585000     329.0845   -609.91518    833.55747    31121.968   -1297.3812    391.39441   -905.98682    -1522.089    798.96385   -1297.3812            0            0            0            0            0   -574.25605   -27.011886 
  590000    321.29913   -243.78004    847.80186     30599.07   -1306.1808    382.13493   -924.04586   -1543.7617    811.82226   -1306.1808            0            0            0            0            0   -574.24139   -27.473483 
  595000    288.28198    242.83361    849.72197    30529.926   -1313.8529    342.86622   -970.98673   -1535.1323    795.46548   -1313.8529            0            0            0            0            0   -574.18615   -27.535705 
  600000    326.84532   -3.7933373    851.08358    30481.082   -1325.7292    388.73126   -936.99798   -1543.6402    792.46338   -1325.7292            0            0            0            0            0   -574.55239   -27.579829 
  605000    313.85449   -216.88896    841.25437    30837.223   -1308.4049     373.2807   -935.12421   -1527.1781    793.05783   -1308.4049            0            0            0            0            0   -574.28468   -27.261308 
  610000    291.38243    384.65369    867.20286     29914.51   -1345.8035    346.55372   -999.24973   -1568.9239    797.52237   -1345.8035            0            0            0            0            0   -574.40197   -28.102183 
  615000    317.17935    126.91182    845.98505    30664.784   -1293.2804     377.2351   -916.04534    -1524.738    805.92177   -1293.2804            0            0            0            0            0   -574.46423   -27.414608 
  620000     318.0702    84.347102    844.12283    30732.433   -1288.6903    378.29463    -910.3957   -1516.2343    801.84603   -1288.6903            0            0            0            0            0   -574.30202   -27.354262 
  625000    303.38279   -8.8207302    855.26878    30331.925   -1325.8005    360.82627   -964.97428   -1549.8208    798.48689   -1325.8005            0            0            0            0            0   -574.46663   -27.715453 
  630000    306.75462   -266.99024    827.55339    31347.764   -1272.4176    364.83653   -907.58107   -1500.8423    802.59983   -1272.4176            0            0            0            0            0   -574.17508    -26.81732 
  635000    297.66931    64.786503    844.91872    30703.484   -1297.8775    354.03097   -943.84653   -1523.0473    799.48318   -1297.8775            0            0            0            0            0   -574.31343   -27.380053 
  640000    289.38981    -301.0839    834.98305    31068.833   -1295.5492     344.1838   -951.36541   -1518.5877    797.45168   -1295.5492            0            0            0            0            0   -574.41314   -27.058082 
  645000    318.52341    144.17041    858.07787    30232.627    -1330.022    378.83365   -951.18836   -1557.4731    801.95281    -1330.022            0            0            0            0            0   -574.50177   -27.806483 
  650000    294.05828     188.9296     849.7284    30529.695   -1289.1849    349.73622   -939.44866   -1521.8934    807.08964   -1289.1849            0            0            0            0            0   -574.38109   -27.535913 
  655000    323.65943    76.990031    852.90466    30416.001   -1315.8419    384.94215   -930.89974   -1540.4878    799.07714   -1315.8419            0            0            0            0            0   -574.43125   -27.638842 
  660000    329.25526    221.00233    837.59278     30972.03   -1272.8136    391.59751   -881.21605   -1498.6582    800.13967   -1272.8136            0            0            0            0            0   -574.29503   -27.142652 
  665000     325.6408   -242.00054    854.45589    30360.781   -1340.4048    387.29868    -953.1061   -1565.5032      799.444   -1340.4048            0            0            0            0            0   -574.34556    -27.68911 
  670000    317.63067      20.9163    851.80218    30455.368   -1323.3389    377.77188   -945.56701   -1549.7346    800.95214   -1323.3389            0            0            0            0            0   -574.55637   -27.603116 
  675000    324.09619    42.114712    856.56566    30286.001   -1325.8798     385.4616   -940.41822   -1559.0296    807.60715   -1325.8798            0            0            0            0            0   -574.45741   -27.757479 
  680000    302.51322   -553.87027    843.55587    30753.089   -1299.9402    359.79204   -940.14819    -1538.164    812.71657   -1299.9402            0            0            0            0            0   -574.49279   -27.335889 
  685000    321.92583    15.669137    854.22928    30368.836   -1320.7321     382.8803    -937.8518   -1542.5368    796.42004   -1320.7321            0            0            0            0            0   -574.61535   -27.681767 
  690000    311.23315   -273.36482    850.29189    30509.463   -1337.4001    370.16303    -967.2371   -1549.5994    786.79368   -1337.4001            0            0            0            0            0   -574.59444   -27.554174 
  695000    319.35852    378.29021    865.63943    29968.539   -1331.8375    379.82688   -952.01059   -1562.4364     804.9021   -1331.8375            0            0            0            0            0   -574.30313   -28.051519 
  700000    297.14602   -91.215679    844.63345    30713.854   -1294.7493     353.4086    -941.3407   -1528.4136    808.08928   -1294.7493            0            0            0            0            0   -574.42495   -27.370809 
  705000    299.86112   -108.12841    857.10475    30266.952   -1342.4898    356.63779   -985.85204   -1564.7226    796.77511   -1342.4898            0            0            0            0            0   -574.54229   -27.774948 
  710000    309.30184   -461.87394    842.12518    30805.335   -1311.6975    367.86605   -943.83148   -1530.3657    793.16989   -1311.6975            0            0            0            0            0   -574.50172   -27.289527 
  715000    327.65915   -8.8297245    840.33198    30871.072   -1296.9566    389.69919    -907.2574   -1519.3694      796.809   -1296.9566            0            0            0            0            0   -574.39614   -27.231417 
  720000    298.80688   -127.14458    842.66132    30785.736   -1297.3295    355.38393    -941.9456   -1523.9428    801.14265   -1297.3295            0            0            0            0            0   -574.52938   -27.306901 
  725000    302.21125   -244.27801      854.875    30345.897   -1341.2315    359.43289   -981.79864   -1559.5155    792.60105   -1341.2315            0            0            0            0            0   -574.31705   -27.702692 
  730000    305.06761    -443.0896    834.35304    31092.292   -1279.3161    362.83009   -916.48605    -1508.169    803.27462   -1279.3161            0            0            0            0            0    -574.4218   -27.037667 
  735000    316.93126    107.19982    852.82131    30418.973   -1321.8662    376.94005   -944.92617   -1546.4715    799.02249   -1321.8662            0            0            0            0            0   -574.41723   -27.636141 
  740000    312.07132    663.63417    847.61025    30605.988   -1279.3711     371.1599   -908.21117   -1501.5361    796.40953   -1279.3711            0            0            0            0            0   -574.24452   -27.467274 
  745000    313.27359   -194.30328    846.39221    30650.033   -1310.2354    372.58981   -937.64555   -1536.7133    801.00353   -1310.2354            0            0            0            0            0   -574.52565   -27.427802 
  750000    317.55225    158.48685    844.42637    30721.386   -1290.9142    377.67861   -913.23564   -1516.1416    799.62582   -1290.9142            0            0            0            0            0   -574.39848   -27.364098 
  755000    308.99823   -220.83095    831.07799    31214.819   -1276.1274    367.50495   -908.62248   -1499.6059    797.93616   -1276.1274            0            0            0            0            0   -574.45773   -26.931537 
  760000    294.88357    -57.39762    835.33601    31055.705   -1275.0987    350.71778   -924.38093   -1500.7724    800.02343   -1275.0987            0            0            0            0            0   -574.34979    -27.06952 
  765000    321.43122    212.88826    867.74821     29895.71   -1360.6879    382.29204   -978.39586   -1574.7771    788.29629   -1360.6879            0            0            0            0            0   -574.20708   -28.119855 
  770000    296.13151   -348.54365    854.72737    30351.138   -1334.4989      352.202    -982.2969   -1558.3572    798.25233   -1334.4989            0            0            0            0            0   -574.39403   -27.697908 
  775000    313.53859    30.110967    862.54988    30075.882   -1345.3495    372.90499   -972.44448   -1565.1931    794.24876   -1345.3495            0            0            0            0            0   -574.40519   -27.951401 
  780000    310.48575   -230.45218    847.40898    30613.257   -1315.1544    369.27412   -945.88028   -1537.1788    796.35701   -1315.1544            0            0            0            0            0   -574.33265   -27.460751 
  785000    304.00004    -86.12849    850.16312    30514.084   -1318.5297    361.56039   -956.96927    -1547.141    802.93701   -1318.5297            0            0            0            0            0   -574.32564   -27.550001 
  790000    316.77691    137.38143    852.57651    30427.707   -1318.2741    376.75647   -941.51767    -1538.601    794.70674   -1318.2741            0            0            0            0            0   -574.37985   -27.628208 
  795000    291.90473   -78.739492    858.80732    30206.949   -1332.3185    347.17491   -985.14356   -1560.8763    802.82631   -1332.3185            0            0            0            0            0   -574.26843   -27.830121 
  800000    304.92165    74.255867    836.71579    31004.493   -1276.3188    362.65649   -913.66236   -1506.5789     804.5535   -1276.3188            0            0            0            0            0   -574.29341   -27.114233 
  805000    316.69746    345.89078    852.94481    30414.569   -1307.4775    376.66197   -930.81553   -1534.0815    800.98104   -1307.4775            0            0            0            0            0     -574.377   -27.640143 
  810000    304.10332   -209.63708    842.36642    30796.513   -1300.7095    361.68322   -939.02631   -1524.9771    798.87554   -1300.7095            0            0            0            0            0   -574.60795   -27.297344 
  815000    313.39497     161.2152    860.96876    30131.115    -1337.032    372.73418   -964.29786   -1557.6745    794.83722    -1337.032            0            0            0            0            0   -574.19472   -27.900164 
  820000     316.4261    20.599792    861.26096    30120.892   -1340.5157    376.33923   -964.17646   -1556.4119    790.24554   -1340.5157            0            0            0            0            0   -574.34932   -27.909632 
  825000     291.4621   -83.338529    857.23876    30262.221   -1344.8482    346.64847    -998.1997   -1564.4285    794.28217   -1344.8482            0            0            0            0            0   -574.70186   -27.779291 
  830000    317.52685   -326.03373    843.29235    30762.699   -1313.5185    377.64841   -935.87005   -1539.1648     800.0936   -1313.5185            0            0            0            0            0   -574.44727    -27.32735 
  835000    285.47294    533.60677     850.9828    30484.692   -1295.1985     339.5253   -955.67321   -1519.3898    798.66622   -1295.1985            0            0            0            0            0    -574.4749   -27.576563 
  840000    287.73494   -105.15359    863.83247    30031.227    -1357.213     342.2156   -1014.9974    -1568.401     785.7348    -1357.213            0            0            0            0            0   -574.54682   -27.992964 
  845000    320.96834     228.2325    853.26727    30403.075   -1308.6515    381.74152   -926.91002     -1536.33    802.03709   -1308.6515            0            0            0            0            0   -574.35861   -27.650592 
  850000    318.86377    -18.37994    840.77567     30854.78   -1292.4445    379.23846   -913.20604   -1514.4039    796.37724   -1292.4445            0            0            0            0            0   -574.41784   -27.245795 
  855000     296.3742    599.20733    846.39149    30650.058   -1281.1957    352.49065   -928.70502   -1510.8085     804.2084   -1281.1957            0            0            0            0            0    -574.5956   -27.427779 
  860000    312.90625    308.76399     858.1444    30230.284   -1314.9372    372.15293   -942.78429   -1545.8661    805.33056   -1314.9372            0            0            0            0            0   -574.40163   -27.808639 
  865000    325.45721    113.56863    862.47279    30078.571   -1342.3626    387.08032   -955.28229   -1563.3511    795.34056   -1342.3626            0            0            0            0            0    -574.3521   -27.948902 
  870000    315.90612   -14.469661    862.67079    30071.667   -1353.8087     375.7208   -978.08793   -1564.4759    785.08565   -1353.8087            0            0            0            0            0   -574.41851   -27.955319 
  875000    297.46359     147.2854    843.77735    30745.017   -1299.8366     353.7863   -946.05028   -1521.0647    795.58902   -1299.8366            0            0            0            0            0   -574.36091   -27.343066 
  880000    277.62739    184.16479    851.04871    30482.331   -1299.9993    330.19425   -969.80501   -1536.0071    810.34203   -1299.9993            0            0            0            0            0   -574.33423   -27.578699 
  885000    307.15673    -353.3965    841.77233    30818.248   -1303.9449    365.31477   -938.63009   -1533.5335     804.0126   -1303.9449            0            0            0            0            0   -574.42397   -27.278093 
  890000    310.23286    469.20616    866.01922    29955.396   -1333.7298    368.97335   -964.75643   -1559.9694    800.50819   -1333.7298            0            0            0            0            0   -574.26858   -28.063826 
  895000    298.93904    79.598355    853.10294    30408.931   -1310.6231    355.54111   -955.08199   -1535.2564    799.10155   -1310.6231            0            0            0            0            0   -574.46827   -27.645267 
  900000    298.17855   -394.51718    849.17279     30549.67    -1328.233    354.63663   -973.59639   -1548.2992    794.58029    -1328.233            0            0            0            0            0   -574.51407   -27.517909 
  905000    332.55453  -0.49472771    852.23328    30439.962   -1321.1542    395.52147   -925.63272   -1546.1571    799.31321   -1321.1542            0            0            0            0            0   -574.31028   -27.617086 
  910000    292.37257   -334.07186     842.3223    30798.127   -1292.8608    347.73133   -945.12951   -1531.6626    813.37356   -1292.8608            0            0            0            0            0   -574.57182   -27.295915 
  915000    329.45238   -585.43918     827.3917    31353.891   -1278.3611    391.83195   -886.52911   -1504.6764    800.68803   -1278.3611            0            0            0            0            0   -574.37264    -26.81208 
  920000    315.27688    1.2595901    838.93824    30922.358   -1283.7221    374.97242   -908.74966   -1509.9016    800.35262   -1283.7221            0            0            0            0            0   -574.17307   -27.186253 
  925000    312.27021   -151.85048    854.59145    30355.965   -1322.5289    371.39645   -951.13249   -1552.0188    804.01516   -1322.5289            0            0            0            0            0   -574.52532   -27.693503 
  930000    292.11663   -320.33195    855.22775     30333.38   -1335.0516    347.42693   -987.62471    -1558.833     798.3795   -1335.0516            0            0            0            0            0   -574.59813   -27.714123 
  935000    319.92734    25.486949    845.26176    30691.024   -1297.8757    380.50341   -917.37226   -1527.5391    803.63856   -1297.8757            0            0            0            0            0   -573.97518    -27.39117 
  940000    305.89316     385.5253    868.65456    29864.517   -1351.1998    363.81195   -987.38786   -1573.4194    796.56382   -1351.1998            0            0            0            0            0   -574.34425   -28.149226 
  945000    342.37497   -108.70467    843.19868    30766.116   -1305.3775    407.20134   -898.17616   -1529.4829    798.84229   -1305.3775            0            0            0            0            0   -574.73686   -27.324314 
  950000    313.34723   -163.11309     834.4741    31087.782   -1276.1085     372.6774   -903.43114   -1500.6947    799.14633   -1276.1085            0            0            0            0            0   -574.56015    -27.04159 
  955000    301.92031   -392.04283     821.9264    31562.374   -1253.7615    359.08688   -894.67463   -1486.6819    807.26786   -1253.7615            0            0            0            0            0    -574.3475   -26.634975 
  960000    311.60176    460.42059    830.99187    31218.054   -1241.6989    370.60144   -871.09747   -1468.3604    800.93596   -1241.6989            0            0            0            0            0   -574.27447   -26.928746 
  965000    306.47744    127.94862    854.86746    30346.164   -1319.9573    364.50686   -955.45043    -1543.576    797.97419   -1319.9573            0            0            0            0            0    -574.3555   -27.702448 
  970000    305.75321   -280.32438    846.94928    30629.873   -1309.8132    363.64551   -946.16771   -1539.2911    803.97641   -1309.8132            0            0            0            0            0   -574.49853   -27.445854 
  975000    321.56013    251.70977    849.80966    30526.775    -1301.287    382.44536   -918.84163   -1533.7215    806.60635    -1301.287            0            0            0            0            0   -574.17181   -27.538547 
  980000    305.47272   -100.05855    848.52023    30573.165   -1320.1477     363.3119   -956.83584   -1539.4819    793.76181   -1320.1477            0            0            0            0            0   -574.42761   -27.496762 
  985000    315.54014   -142.31241    848.97736    30556.702   -1320.0571    375.28553   -944.77158   -1537.8295    792.27072   -1320.0571            0            0            0            0            0   -574.49833   -27.511576 
  990000    322.94737    408.20572    840.71878    30856.868    -1276.878    384.09526   -892.78269   -1498.2755    795.72627    -1276.878            0            0            0            0            0    -574.3287   -27.243952 
  995000    304.56075    590.17232    852.50199    30430.367    -1304.032    362.22726   -941.80478   -1525.0257    795.41793    -1304.032            0            0            0            0            0   -574.42422   -27.625793 
 1000000    310.79187   -247.66548    843.49855    30755.179   -1297.0646     369.6382   -927.42637   -1529.0527    806.36231   -1297.0646            0            0            0            0            0   -574.37418   -27.334032 
 1005000    319.43638   -251.13498     855.0639    30339.193   -1331.4769     379.9195   -951.55738   -1557.7112    800.68744   -1331.4769            0            0            0            0            0   -574.45307   -27.708813 
 1010000    329.01112    630.95144    863.81889    30031.699   -1313.0286    391.30714   -921.72142   -1544.6154    805.94434   -1313.0286            0            0            0            0            0    -574.3575   -27.992524 
 1015000    301.48787   -86.831284    839.01363     30919.58   -1297.1917    358.57256   -938.61919   -1515.9244    792.99471   -1297.1917            0            0            0            0            0   -574.26206   -27.188695 
 1020000      324.663    47.867982    835.94153     31033.21   -1274.9932    386.13573   -888.85747   -1502.0966    801.56287   -1274.9932            0            0            0            0            0   -574.45948   -27.089142 
 1025000     299.0469    22.240516    842.80835    30780.365   -1300.3857    355.66939   -944.71629   -1527.4357    801.51764   -1300.3857            0            0            0            0            0   -574.46763   -27.311666 
 1030000     321.8799   -405.36062    832.91837    31145.848   -1286.4734    382.82568   -903.64768   -1512.9457    800.72862   -1286.4734            0            0            0            0            0   -574.25632   -26.991175 
 1035000    290.75459   -531.86797    825.89697    31410.635   -1275.9192      345.807   -930.11217   -1501.8321    800.30168   -1275.9192            0            0            0            0            0   -574.38875   -26.763643 
 1040000    308.09535    488.09112    853.60572     30391.02   -1308.2983    366.43112   -941.86715   -1538.2168    804.30631   -1308.2983            0            0            0            0            0   -574.38777    -27.66156 
 1045000     295.7827   -36.042665    845.67329    30676.088   -1300.6503    351.78715   -948.86315   -1526.2897    800.23561   -1300.6503            0            0            0            0            0   -574.59623   -27.404505 
 1050000    322.42387   -31.618768    841.47701    30829.064   -1279.6705    383.47264   -896.19784   -1517.7284    812.22587   -1279.6705            0            0            0            0            0   -574.16797   -27.268523 
 1055000    307.54358   -313.36611    842.04729    30808.185   -1295.8884    365.77487   -930.11357   -1520.9311    799.26334   -1295.8884            0            0            0            0            0    -574.2207   -27.287003 
 1060000    309.58237   -665.09466    819.33719    31662.115   -1257.3883    368.19969   -889.18861   -1485.2234     802.1333   -1257.3883            0            0            0            0            0   -574.29819    -26.55107 
 1065000    298.37094    451.87843    858.78349    30207.787   -1320.2441    354.86545   -965.37869    -1543.471    797.41406   -1320.2441            0            0            0            0            0    -574.1872   -27.829349 
 1070000    303.38535    99.730568    863.94457     30027.33   -1344.3969    360.82931   -983.56755   -1567.3471    797.40276   -1344.3969            0            0            0            0            0   -574.45249   -27.996596 
 1075000    304.73179    85.189489    837.15989    30988.045   -1272.7326    362.43069   -910.30196   -1497.9767    799.71555   -1272.7326            0            0            0            0            0   -574.47153   -27.128624 
 1080000    303.57839   -12.880546    850.73533     30493.56   -1308.1628     361.0589   -947.10389   -1541.9442    808.22589   -1308.1628            0            0            0            0            0   -574.44447   -27.568544 
 1085000    323.08852    276.77008    845.27305    30690.614   -1297.8214    384.26314   -913.55828   -1520.1852    796.80815   -1297.8214            0            0            0            0            0   -574.44433   -27.391535 
 1090000    306.65072    295.55195    852.73769    30421.956   -1310.0565    364.71295   -945.34351   -1531.7887    795.88543   -1310.0565            0            0            0            0            0   -574.15321   -27.633431 
 1095000    307.84216   -22.210533     857.2525    30261.736   -1329.0686    366.12998   -962.93859   -1559.9596    805.18138   -1329.0686            0            0            0            0            0   -574.29037   -27.779736 
 1100000     320.8961    339.06667    858.23718    30227.016   -1323.2391     381.6556   -941.58347   -1542.9861    794.24406   -1323.2391            0            0            0            0            0   -574.49705   -27.811645 
 1105000    306.41565    61.301536    864.74809    29999.429   -1353.9164    364.43338   -989.48304   -1577.6373    798.15231   -1353.9164            0            0            0            0            0   -574.43139   -28.022635 
 1110000    314.82832   -109.20179    846.04505    30662.609   -1298.5571    374.43892    -924.1182    -1528.475    804.37232   -1298.5571            0            0            0            0            0   -574.45445   -27.416553 
 1115000    299.54529    534.56201    864.96711    29991.832   -1330.7619    356.26215    -974.4998   -1552.6758    796.32195   -1330.7619            0            0            0            0            0   -574.40808   -28.029732 
 1120000    317.34079   -290.37996    848.55601    30571.875   -1320.6625    377.42711    -943.2354   -1542.5688    796.25265   -1320.6625            0            0            0            0            0   -574.34632   -27.497922 
 1125000    301.69356     108.4919    844.12935    30732.196   -1288.4528    358.81719   -929.63566    -1520.006    805.85499   -1288.4528            0            0            0            0            0   -574.30182   -27.354473 
 1130000    310.14279    208.18099    841.69811    30820.966   -1290.4073    368.86622   -921.54112   -1509.9878    794.00101   -1290.4073            0            0            0            0            0   -574.42054   -27.275688 
 1135000    314.10792    132.59777    854.27346    30367.265     -1327.78    373.58212   -954.19783   -1546.8442    793.46832     -1327.78            0            0            0            0            0   -574.40408   -27.683199 
 1140000    323.06566     32.10873    854.36773    30363.914   -1327.7398    384.23595   -943.50384   -1555.7397    802.59382   -1327.7398            0            0            0            0            0   -574.59387   -27.686253 
 1145000     306.4196    6.2307028     858.0155    30234.825   -1338.9239    364.43807   -974.48586   -1564.4659    799.90914   -1338.9239            0            0            0            0            0   -574.36722   -27.804462 
 1150000    324.74809   -213.05109    849.85649    30525.093   -1322.0499    386.23693   -935.81294   -1544.5364    797.06101   -1322.0499            0            0            0            0            0   -574.57444   -27.540064 
 1155000    272.11324   -146.53355    843.45865    30756.634   -1301.7341    323.63603   -978.09811   -1522.8985    795.52491   -1301.7341            0            0            0            0            0   -574.36051   -27.332739 
 1160000     313.9247   -351.89228    841.35315    30833.603   -1308.9796    373.36421   -935.61535   -1538.6451    804.00885   -1308.9796            0            0            0            0            0   -574.34334   -27.264509 
 1165000    313.11173   -194.80008    858.65034    30212.471   -1341.4066    372.39731   -969.00934   -1565.0977    798.10347   -1341.4066            0            0            0            0            0   -574.41245   -27.825034 
 1170000    291.85831     78.15824    849.24855    30546.945   -1303.6792     347.1197   -956.55949   -1535.8958    806.48379   -1303.6792            0            0            0            0            0   -574.26717   -27.520364 
 1175000    286.14647   -562.09727    858.25708    30226.315   -1348.8715    340.32637   -1008.5451   -1578.1597    803.83528   -1348.8715            0            0            0            0            0   -574.54711    -27.81229 
 1180000    318.72413    279.77568    857.61877    30248.812   -1320.5507    379.07238   -941.47832   -1547.7829    801.71372   -1320.5507            0            0            0            0            0   -574.48148   -27.791605 
 1185000    303.03891    182.98231    861.50319    30112.423   -1336.9705    360.41727   -976.55322   -1558.6147    796.06747   -1336.9705            0            0            0            0            0   -574.42323   -27.917482 
 1190000    316.34641    379.39129    874.27091    29672.666   -1359.0168    376.24446   -982.77229   -1577.4035    792.97489   -1359.0168            0            0            0            0            0   -574.58812   -28.331227 
 1195000    314.53576   -36.981591    827.91399    31334.111   -1262.0989    374.09097   -888.00792   -1493.6942    805.88044   -1262.0989            0            0            0            0            0   -574.28516   -26.829006 
 1200000    292.53511   -177.78234    866.31699      29945.1   -1362.2428    347.92465   -1014.3181    -1587.971     800.2298   -1362.2428            0            0            0            0            0   -574.50158   -28.073476 
 1205000    300.36875    415.75227    857.09203    30267.402   -1316.0227    357.24154   -958.78117   -1542.0516    800.37909   -1316.0227            0            0            0            0            0   -574.35018   -27.774536 
 1210000    332.97087   -275.18749    829.99568    31255.523   -1270.9934    396.01665   -874.97676   -1498.5246     802.0883   -1270.9934            0            0            0            0            0   -574.55715   -26.896464 
 1215000    300.57639    39.247118    845.91623    30667.278   -1294.4305    357.48848   -936.94198   -1527.6699    807.32878   -1294.4305            0            0            0            0            0    -574.0893   -27.412378 
 1220000    278.96794    78.996909    856.79116     30278.03   -1324.7625    331.78862   -992.97391   -1554.5289    804.27832   -1324.7625            0            0            0            0            0   -574.51198   -27.764786 
 1225000    315.14352   -22.271034     848.8884    30559.905   -1314.1223    374.81381   -939.30845   -1537.1069    797.67929   -1314.1223            0            0            0            0            0   -574.69463   -27.508693 
 1230000    314.21866   -316.92413    861.47631    30113.363   -1349.3193    373.71383   -975.60552   -1571.0355    796.13026   -1349.3193            0            0            0            0            0   -574.41408   -27.916611 
 1235000    302.75127    278.46006    843.77643     30745.05   -1284.0134    360.07517   -923.93826   -1514.3618    804.78253   -1284.0134            0            0            0            0            0   -574.43414   -27.343037 
 1240000    301.34281    325.59333    863.30041    30049.735   -1333.0989    358.40003   -974.69884   -1557.8983    799.09659   -1333.0989            0            0            0            0            0   -574.29712   -27.975722 
 1245000     306.9822    74.262404    851.17738    30477.723   -1314.2157     365.1072   -949.10847   -1540.2452    800.46296   -1314.2157            0            0            0            0            0   -574.43348   -27.582868 
 1250000    309.73382    560.31208    852.87903    30416.914   -1306.3824    368.37982   -938.00258   -1531.4414    799.56501   -1306.3824            0            0            0            0            0   -574.50598   -27.638012 
 1255000    314.64014    275.57614    862.31233    30084.168   -1334.3508    374.21512   -960.13571   -1561.9939    802.17079   -1334.3508            0            0            0            0            0   -574.52767   -27.943703 
 1260000    303.69836    820.31035    865.99047     29956.39   -1321.3333    361.20158   -960.13175   -1543.1025    796.37246   -1321.3333            0            0            0            0            0   -574.60329   -28.062895 
 1265000     289.7238   -211.55181    853.90658    30380.312   -1324.9194    344.58103   -980.33835   -1552.2393    801.56224   -1324.9194            0            0            0            0            0   -574.24231    -27.67131 
 1270000    307.36736    102.87743    854.15525    30371.468   -1313.0157    365.56529   -947.45038   -1539.2532    800.41759   -1313.0157            0            0            0            0            0   -574.18005   -27.679368 
 1275000    277.36302    468.46346     858.6677     30211.86   -1307.5194    329.87983   -977.63961   -1531.9457    798.73678   -1307.5194            0            0            0            0            0   -574.31054   -27.825596 
 1280000     278.5645    109.94641    834.54168    31085.264   -1270.0222     331.3088   -938.71336    -1501.395    805.62952   -1270.0222            0            0            0            0            0   -574.25663    -27.04378 
 1285000    289.71002    89.711432    842.52752    30790.624   -1277.3109    344.56464   -932.74622   -1504.1358    801.16349   -1277.3109            0            0            0            0            0   -574.33857   -27.302565 
 1290000    328.86704   -4.3616029    832.37948    31166.012   -1278.5807    391.13578   -887.44494   -1503.2848    799.14492   -1278.5807            0            0            0            0            0   -574.44081   -26.973712 
 1295000    286.62763   -464.34877    836.07897    31028.108    -1296.535    340.89863   -955.63637   -1519.8228    797.49892    -1296.535            0            0            0            0            0   -574.21111   -27.093596 
 1300000    318.56705    786.39841    862.69917    30070.678   -1328.3157    378.88556    -949.4301   -1548.9684    794.95925   -1328.3157            0            0            0            0            0   -574.30652   -27.956238 
 1305000    313.43103    500.42825    851.30806    30473.045   -1299.2275    372.77707   -926.45045   -1529.3458    804.62779   -1299.2275            0            0            0            0            0    -574.5095   -27.587103 
 1310000    314.22481   -123.14684    850.68472    30495.374   -1314.0316    373.72115    -940.3105   -1547.0025    807.28337   -1314.0316            0            0            0            0            0    -574.3125   -27.566904 
 1315000    285.60919   -502.37782    840.67348    30858.531   -1319.0559    339.68735   -979.36857   -1536.4587    791.81968   -1319.0559            0            0            0            0            0   -574.41686   -27.242484 
 1320000    301.33617   -40.981453    847.98488    30592.466   -1324.6815    358.39213   -966.28938   -1546.5942    796.12847   -1324.6815            0            0            0            0            0    -574.2158   -27.479414 
 1325000    315.26032   -371.19007    858.42546    30220.386   -1356.4382    374.95273   -981.48549   -1580.0658    798.14154   -1356.4382            0            0            0            0            0   -574.51394   -27.817746 
 1330000    317.42262   -363.38003    840.08426    30880.175   -1306.3278    377.52444   -928.80337   -1530.9561    799.08146   -1306.3278            0            0            0            0            0    -574.4532    -27.22339 
 1335000    308.13258   -293.04315    850.63083    30497.306   -1332.7167    366.47539    -966.2413   -1558.9421    800.41232   -1332.7167            0            0            0            0            0   -574.18695   -27.565157 
 1340000    304.03994     335.7677    856.48132    30288.984   -1307.9344    361.60783   -946.32653   -1532.4924    798.88712   -1307.9344            0            0            0            0            0   -574.32903   -27.754745 
 1345000    302.58897     251.4491    838.20737    30949.321   -1278.5926    359.88214   -918.71046    -1506.519    802.42955   -1278.5926            0            0            0            0            0   -574.50319   -27.162568 
 1350000    320.62353   -33.159618    858.64469     30212.67   -1331.8105    381.33142   -950.47907   -1561.1026    803.91167   -1331.8105            0            0            0            0            0   -574.61952   -27.824851 
 1355000    294.76787   -335.62083    843.81298    30743.718   -1301.3474    350.58017   -950.76723   -1531.7887    804.89871   -1301.3474            0            0            0            0            0   -574.45736   -27.344221 
 1360000    286.08713      364.001    852.36836    30435.138   -1310.6303    340.25578   -970.37455   -1531.9137    795.60298   -1310.6303            0            0            0            0            0   -574.31964   -27.621463 
 1365000    313.95979    243.76075     864.8422    29996.164    -1347.377    373.40594   -973.97107   -1573.5643    800.32316    -1347.377            0            0            0            0            0   -574.13588   -28.025685 
 1370000    300.19284    55.488862    853.34238    30400.399   -1309.1099    357.03232   -952.07755   -1536.6033     802.1818   -1309.1099            0            0            0            0            0   -574.68839   -27.653027 
 1375000    325.96275    44.508201    835.93137    31033.587   -1275.7088    387.68158   -888.02726   -1510.8155    809.49159   -1275.7088            0            0            0            0            0   -574.38493   -27.088813 
 1380000    294.91625    40.262352    848.58761    30570.737    -1300.916    350.75664    -950.1594   -1534.7387     808.2698    -1300.916            0            0            0            0            0   -574.44709   -27.498946 
 1385000    292.29727   -73.288308    846.12901    30659.566   -1298.3183    347.64177   -950.67649   -1523.5809    799.75545   -1298.3183            0            0            0            0            0   -574.49279   -27.419273 
 1390000     314.4591   -169.01148    830.96148    31219.195   -1249.6504    373.99979    -875.6506   -1491.2415    816.15023   -1249.6504            0            0            0            0            0   -574.55913   -26.927761 
 1395000    325.07661    95.404816     857.0399    30269.243   -1334.1661    386.62766    -947.5384    -1555.698    795.68777   -1334.1661            0            0            0            0            0   -574.15579   -27.772847 
 1400000    305.00901    169.70485    867.90758     29890.22   -1349.1369     362.7604    -986.3765   -1577.1786    802.52953   -1349.1369            0            0            0            0            0   -574.48783    -28.12502 
 1405000    318.11438    335.96734    854.93921    30343.618   -1320.2618    378.34718    -941.9146   -1546.7432    800.44945   -1320.2618            0            0            0            0            0   -573.96799   -27.704773 
 1410000    309.28314    110.41089    833.38863    31128.273   -1266.3616     367.8438   -898.51776   -1500.1965    808.24076   -1266.3616            0            0            0            0            0   -574.40584   -27.006414 
 1415000    304.07188    -46.13238    837.44687    30977.426   -1282.9013    361.64583    -921.2555   -1507.1949     798.8088   -1282.9013            0            0            0            0            0   -574.51527   -27.137924 
 1420000    309.37886    191.59424    865.86456    29960.747    -1362.354    367.95764   -994.39631   -1580.4885    792.84426    -1362.354            0            0            0            0            0   -574.70969   -28.058815 
 1425000    324.27226    432.36097    852.34525    30435.963   -1310.3057    385.67101   -924.63472   -1532.4775    796.65472   -1310.3057            0            0            0            0            0   -574.48291   -27.620714 
 1430000    308.62324   -380.32378    830.02209    31254.528   -1278.9329    367.05895   -911.87395   -1506.6624     802.1442   -1278.9329            0            0            0            0            0   -574.41472    -26.89732 
 1435000    328.83757    21.746898    854.95869    30342.926   -1324.6486    391.10073   -933.54788   -1549.6168    799.32748   -1324.6486            0            0            0            0            0   -574.35926   -27.705404 
 1440000    314.27292    -214.6624    832.54712    31159.736   -1262.9349    373.77836   -889.15656   -1493.1223    804.47262   -1262.9349            0            0            0            0            0   -574.28524   -26.979145 
 1445000    323.07379   -105.92667    841.08376    30843.478   -1285.5434    384.24562   -901.29778    -1512.675    801.47485   -1285.5434            0            0            0            0            0   -574.34321   -27.255779 
 1450000    309.07348   -140.99515    865.98752    29956.492   -1354.8306    367.59445   -987.23616    -1569.872    789.50822   -1354.8306            0            0            0            0            0   -574.46681   -28.062799 
 1455000    320.83405    174.46689     863.5701    30040.351   -1348.1491     381.5818   -966.56733   -1571.1787    797.68252   -1348.1491            0            0            0            0            0   -574.65295   -27.984461 
 1460000    314.86261   -278.49522     840.6478    30859.474   -1301.7857    374.47971   -927.30599   -1527.1057    799.79091   -1301.7857            0            0            0            0            0   -574.47091   -27.241652 
 1465000    317.51514   -817.82022     824.9791    31445.583   -1275.3299    377.63447   -897.69545   -1502.5422    801.59331   -1275.3299            0            0            0            0            0   -574.38105   -26.733899 
 1470000     297.8895    -136.0937    853.16652    30406.665    -1331.117    354.29285   -976.82411   -1548.5682    791.89685    -1331.117            0            0            0            0            0   -574.44562   -27.647328 
 1475000    318.20745   -259.60886    850.31714    30508.557   -1315.5242    378.45787   -937.06636   -1546.1759    805.23684   -1315.5242            0            0            0            0            0   -574.58518   -27.554992 
 1480000    295.83542   -166.06005    846.50518    30645.942   -1302.2741    351.84985   -950.42428   -1531.7186    803.66171   -1302.2741            0            0            0            0            0   -574.21728   -27.431463 
 1485000    322.66966    363.68685    868.94737    29854.453   -1350.7607    383.76497   -966.99568   -1569.6391    793.36278   -1350.7607            0            0            0            0            0   -574.48436   -28.158715 
 1490000    309.47508    132.19696    834.72167    31078.561   -1266.8143    368.07208   -898.74219   -1495.0182    802.48691   -1266.8143            0            0            0            0            0   -574.28299   -27.049612 
 1495000    294.27389    31.246316    848.99368    30556.115   -1315.3842    349.99265   -965.39159   -1535.9934    794.80362   -1315.3842            0            0            0            0            0   -574.19442   -27.512104 
 1500000    303.27849    40.838643    844.48657    30719.196   -1288.6148    360.70222   -927.91255   -1517.2218    803.08705   -1288.6148            0            0            0            0            0   -574.48007   -27.366049 
 1505000    284.98768   -179.39646    855.03916    30340.071   -1330.6986    338.94816   -991.75045   -1562.2358    805.99881   -1330.6986            0            0            0            0            0   -574.46163   -27.708012 
 1510000     289.4783     302.2831    869.92902    29820.765   -1348.7145    344.28905   -1004.4255   -1573.8944    799.63556   -1348.7145            0            0            0            0            0   -574.45569   -28.190526 
 1515000    318.98194    79.026639    854.67749     30352.91   -1316.7832      379.379   -937.40421   -1550.8979    808.43367   -1316.7832            0            0            0            0            0   -574.31901   -27.696291 
 1520000    295.24409    540.17038    852.14003    30443.293   -1293.1171    351.14655   -941.97054   -1526.3315     807.5111   -1293.1171            0            0            0            0            0   -574.29671   -27.614064 
 1525000    307.07643    61.382783    853.54752    30393.092   -1327.2521    365.21927   -962.03279   -1550.2026    797.34158   -1327.2521            0            0            0            0            0   -574.39106   -27.659674 
 1530000     311.5911    108.47645    848.33475    30579.849   -1311.0906    370.58876   -940.50185   -1533.6892    797.12528   -1311.0906            0            0            0            0            0   -574.52666   -27.490752 
 1535000     306.7131     -44.8078    847.93178    30594.382   -1303.7532    364.78714    -938.9661   -1535.1507    805.86707   -1303.7532            0            0            0            0            0   -574.46965   -27.477693 
 1540000    315.95859   -75.651538    857.06083    30268.503   -1341.4182    375.78321   -965.63498   -1559.0352    792.15255   -1341.4182            0            0            0            0            0   -574.53554   -27.773525 
 1545000    320.07201    248.25802    864.44593    30009.915    -1335.854    380.67547   -955.17851   -1560.1111    798.69155    -1335.854            0            0            0            0            0   -574.43442   -28.012843 
 1550000     320.1768    36.155085     850.8673     30488.83   -1307.1588     380.8001   -926.35873   -1529.1728     796.5221   -1307.1588            0            0            0            0            0   -574.50812    -27.57282 
 1555000    300.59581     46.58377    854.66273    30353.434   -1328.4773    357.51159   -970.96566   -1547.6399    793.55294   -1328.4773            0            0            0            0            0   -574.39026   -27.695813 
 1560000    301.97771    169.05161    851.66372    30460.319     -1313.81    359.15514    -954.6549   -1539.9948    800.60659     -1313.81            0            0            0            0            0   -574.42186   -27.598629 
 1565000    327.16584   -136.77111    851.40037    30469.741   -1317.7644    389.11247   -928.65196   -1546.3061    802.94177   -1317.7644            0            0            0            0            0   -574.40012   -27.590095 
 1570000    316.86538    32.186811    841.92444     30812.68   -1282.9374    376.86169   -906.07575    -1510.341    802.04355   -1282.9374            0            0            0            0            0   -574.64003   -27.283022 
 1575000    291.62398   -321.63436    831.72536    31190.523   -1268.2284      346.841   -921.38736   -1501.1964     807.2166   -1268.2284            0            0            0            0            0   -574.24856   -26.952515 
 1580000    328.79287   -116.74267    830.20648    31247.586    -1270.903    391.04757   -879.85544   -1496.5488    799.82857    -1270.903            0            0            0            0            0   -574.18275   -26.903295 
 1585000    291.12197    103.97493     844.6751     30712.34   -1278.4892    346.24394   -932.24521    -1510.853    806.84721   -1278.4892            0            0            0            0            0   -574.48338   -27.372159 
 1590000    318.39305    298.25186    870.38953    29804.987   -1353.5487    378.67861   -974.87004   -1575.2263    795.96627   -1353.5487            0            0            0            0            0   -574.28866   -28.205449 
 1595000    308.39341   -368.74831    846.76176    30636.656   -1313.1153    366.78561   -946.32965   -1538.1925    799.28944   -1313.1153            0            0            0            0            0   -574.21216   -27.439778 
[...]
 4600000    315.13563   -80.547781     843.0739     30770.67   -1295.4347    374.80442   -920.63027   -1523.0312     801.8354   -1295.4347            0            0            0            0            0   -574.23885   -27.320271 
 4605000    312.91219    177.80763    870.71652    29793.794   -1357.5662    372.15998   -985.40619   -1584.1679    800.99626   -1357.5662            0            0            0            0            0   -574.39458   -28.216045 
 4610000    310.68537   -492.62393    849.76013    30528.555   -1336.8526    369.51153   -967.34109   -1562.1592    799.50726   -1336.8526            0            0            0            0            0   -574.20064   -27.536942 
 4615000    302.07498   -400.09255    849.14178    30550.786   -1335.5286    359.27083   -976.25775    -1555.758    794.65843   -1335.5286            0            0            0            0            0   -574.42897   -27.516904 
 4620000    321.29872   -91.313671    856.39293     30292.11   -1330.3543    382.13445   -948.21983   -1556.2177     800.4444   -1330.3543            0            0            0            0            0   -574.58095   -27.751881 
 4625000    329.78618    -69.41445    838.86456    30925.074    -1287.754    392.22895   -895.52505   -1510.3827    797.08046    -1287.754            0            0            0            0            0   -574.45178   -27.183865 
 4630000    321.36614   -17.210677    856.18323    30299.529   -1326.6889    382.21463    -944.4743   -1554.3706    801.86089   -1326.6889            0            0            0            0            0   -574.17919   -27.745086 
 4635000     327.9783    26.431915    859.18976    30193.503    -1339.189    390.07876   -949.11023   -1558.6906    793.89528    -1339.189            0            0            0            0            0   -574.39364   -27.842514 
 4640000    320.13313    730.12657    852.64705     30425.19   -1291.6879    380.74817   -910.93978   -1518.7316    801.49844   -1291.6879            0            0            0            0            0   -574.45481   -27.630494 
 4645000    329.35132    532.89074    849.22967    30547.624   -1283.5036    391.71176   -891.79184   -1513.3205     804.2524   -1283.5036            0            0            0            0            0   -574.43553   -27.519752 
 4650000    299.94609    36.338795    871.44922    29768.744   -1363.5476    356.73885   -1006.8087   -1586.9365    797.96728   -1363.5476            0            0            0            0            0   -574.57834   -28.239789 
 4655000    314.02971    240.59509    847.40848    30613.275   -1297.6658    373.48911   -924.17671   -1524.8983    801.54148   -1297.6658            0            0            0            0            0   -574.30903   -27.460735 
 4660000     311.6165   -324.84362    842.67818     30785.12   -1303.1339    370.61897   -932.51493    -1528.744    799.97877   -1303.1339            0            0            0            0            0    -574.3687   -27.307447 
 4665000    297.60021    294.64944    860.10075    30161.523   -1330.7908    353.94879   -976.84202   -1554.5703     798.3702   -1330.7908            0            0            0            0            0   -574.59067   -27.872035 
 4670000    285.09837   -362.84516    842.16365    30803.928   -1307.4754    339.07981   -968.39555    -1532.286    799.18181   -1307.4754            0            0            0            0            0   -574.37114   -27.290774 
 4675000    314.59751    390.90118    855.37147    30328.284   -1305.2883    374.16441   -931.12392   -1534.3925    803.40457   -1305.2883            0            0            0            0            0   -574.30037    -27.71878 
 4680000    291.41713    448.72097    864.48151     30008.68   -1339.6326    346.59498   -993.03763    -1564.648    799.07467   -1339.6326            0            0            0            0            0   -574.05929   -28.013996 
 4685000    299.68949   -45.249935    842.15048     30804.41   -1292.8089    356.43365    -936.3752   -1519.7806    801.21831   -1292.8089            0            0            0            0            0   -574.24659   -27.290347 
 4690000    312.08735    77.253028    850.26484    30510.433   -1292.5209    371.17897   -921.34194    -1530.341    811.83119   -1292.5209            0            0            0            0            0   -574.01111   -27.553297 
 4695000    315.15411    76.926796    846.61035    30642.135   -1304.2202     374.8264   -929.39379   -1532.1845    802.44621   -1304.2202            0            0            0            0            0   -574.48186   -27.434871 
 4700000    299.07095    439.37719    864.89446    29994.352   -1333.4119    355.69801   -977.71388    -1558.177    799.08472   -1333.4119            0            0            0            0            0   -574.31965   -28.027378 
 4705000    319.11228    187.92907    846.78661    30635.757   -1292.9426    379.53403   -913.40853   -1519.1427    800.53594   -1292.9426            0            0            0            0            0    -574.3358   -27.440583 
 4710000    328.07924   -40.720478    852.76872    30420.849   -1325.0395    390.19881   -934.84073   -1549.4829    799.06489   -1325.0395            0            0            0            0            0   -574.62153   -27.634437 
 4715000    316.68853    102.16455    846.50373    30645.994   -1296.2967    376.65136   -919.64533   -1523.9227    802.01251   -1296.2967            0            0            0            0            0   -574.38652   -27.431416 
 4720000    345.20318    359.65448    853.48982    30395.147   -1305.5032    410.56505   -894.93818   -1528.7232    797.48191   -1305.5032            0            0            0            0            0   -574.26193   -27.657804 
 4725000    287.60493   -82.842939    843.25907    30763.913   -1298.1591    342.06097   -956.09816   -1524.4859    800.92073   -1298.1591            0            0            0            0            0   -574.59398   -27.326271 
 4730000     314.0593   -400.79533    840.58006     30861.96   -1310.6931     373.5243   -937.16884    -1529.087    792.92795   -1310.6931            0            0            0            0            0   -574.53406   -27.239457 
 4735000    328.49058    107.42045    839.52158    30900.872   -1275.0627    390.68804   -884.37462   -1502.9513    802.32354   -1275.0627            0            0            0            0            0   -574.43492   -27.205156 
 4740000    319.19638   -215.96508    831.56031    31196.713   -1273.8869    379.63405   -894.25284   -1508.3686     808.8379   -1273.8869            0            0            0            0            0   -574.35614   -26.947167 
 4745000    308.05489     494.5777    860.36681    30152.196   -1318.7422    366.38299   -952.35923   -1537.8579    793.26188   -1318.7422            0            0            0            0            0   -574.14621   -27.880657 
 4750000    314.43685   -184.32649     848.0387    30590.524   -1313.6201    373.97333   -939.64679   -1538.8687    799.49631   -1313.6201            0            0            0            0            0   -574.24775   -27.481158 
 4755000    312.56295   -86.242673    841.01019    30846.176   -1292.1898    371.74462   -920.44521   -1520.0896    802.16086   -1292.1898            0            0            0            0            0   -574.26107   -27.253395 
 4760000    290.69499    121.88947    845.59755    30678.836   -1292.6462    345.73612   -946.91012    -1524.415     806.2977   -1292.6462            0            0            0            0            0   -574.52896   -27.402051 
 4765000    300.99188   -672.01598    829.22923    31284.412   -1289.2167    357.98265   -931.23406   -1509.7244    795.01644   -1289.2167            0            0            0            0            0   -574.50878   -26.871627 
 4770000    317.26193    470.47744    849.94661    30521.857   -1292.5734    377.33332   -915.24003   -1517.5011    799.26912   -1292.5734            0            0            0            0            0   -574.34138   -27.542985 
 4775000     313.7682   -34.154471     857.6146    30248.959   -1338.1615    373.17808   -964.98339   -1558.2271    794.63912   -1338.1615            0            0            0            0            0   -574.57347    -27.79147 
 4780000     316.2121   -290.04726    845.71035    30674.744   -1326.0569    376.08471   -949.97217   -1544.2973    792.83522   -1326.0569            0            0            0            0            0   -574.59484   -27.405707 
 4785000    300.06331   -299.80603    829.64899    31268.583   -1274.0974    356.87826   -917.21918   -1502.3055    802.35127   -1274.0974            0            0            0            0            0   -574.14317   -26.885229 
 4790000    300.53426   -69.150653    855.79381    30313.317    -1337.259    357.43838   -979.82066   -1553.0299    790.17901    -1337.259            0            0            0            0            0   -574.40818   -27.732466 
 4795000    306.96086   -330.23881    860.98717    30130.471   -1347.3546    365.08182   -982.27281   -1577.3847    804.50845   -1347.3546            0            0            0            0            0   -574.47835    -27.90076 
 4800000    311.11969    125.84856    863.06931    30057.782   -1345.6381    370.02809   -975.60996   -1569.3831    797.83527   -1345.6381            0            0            0            0            0   -574.09028   -27.968233 
 4805000    308.08863   -101.04313    853.26985    30402.983   -1324.7656    366.42312   -958.34249   -1552.8706    802.49305   -1324.7656            0            0            0            0            0   -574.38803   -27.650676 
 4810000    304.74331    55.453771    846.16051    30658.425    -1310.091    362.44438   -947.64663   -1527.5478    791.80336    -1310.091            0            0            0            0            0   -574.34663   -27.420294 
 4815000    320.89943    543.50177    869.73333    29827.474   -1346.2861    381.65956   -964.62651   -1568.4116    796.51598   -1346.2861            0            0            0            0            0   -574.39049   -28.184184 
 4820000    272.56315   -162.63578    844.43607    30721.033   -1301.1615    324.17114   -976.99035   -1530.8443    803.82808   -1301.1615            0            0            0            0            0   -574.14529   -27.364413 
 4825000    302.56885    506.44074    850.30524    30508.984   -1292.6675    359.85821   -932.80933   -1524.9511    806.68859   -1292.6675            0            0            0            0            0   -574.40499   -27.554606 
 4830000    341.67617   -69.670093    837.81398    30963.853   -1284.4443    406.37024   -878.07405   -1518.3172    808.07783   -1284.4443            0            0            0            0            0   -574.20495    -27.14982 
 4835000    312.38467    973.02839    865.75815    29964.429   -1319.4838    371.53258    -947.9512   -1545.6964    800.57987   -1319.4838            0            0            0            0            0   -574.36727   -28.055366 
 4840000     300.4542    145.28979    855.34694    30329.154   -1326.5362    357.34316   -969.19308   -1554.2327    801.87609   -1326.5362            0            0            0            0            0   -574.17966   -27.717985 
 4845000    296.15657   -202.89184     830.0237    31254.467   -1264.3602    352.23181   -912.12838   -1491.7973    801.87887   -1264.3602            0            0            0            0            0   -574.44177   -26.897372 
 4850000    315.22476   -111.46681    829.33367    31280.472   -1258.8406    374.91043   -883.93016    -1494.899    810.57155   -1258.8406            0            0            0            0            0   -574.51311   -26.875011 
 4855000    304.26214    153.34511    849.51377    30537.408   -1311.2258    361.87211   -949.35367   -1532.7217    795.94295   -1311.2258            0            0            0            0            0   -574.44706   -27.528958 
 4860000    292.49849    151.77015    852.00876    30447.983   -1313.6513    347.88109   -965.77017   -1536.0961    796.77697   -1313.6513            0            0            0            0            0   -574.33215    -27.60981 
 4865000    332.25153    350.06143    862.09067    30091.903   -1329.3032     395.1611    -934.1421   -1553.5303    798.13244   -1329.3032            0            0            0            0            0   -573.90534    -27.93652 
 4870000    322.35458   -129.04716    855.39187     30327.56   -1335.4898    383.39023   -952.09962   -1558.9571    797.58966   -1335.4898            0            0            0            0            0    -574.1224   -27.719441 
 4875000    331.63273    61.388251    850.57404    30499.342   -1305.4149    394.42514   -910.98974   -1532.5182    801.62064   -1305.4149            0            0            0            0            0   -574.51728   -27.563317 
 4880000    288.10846    458.61219    846.66775    30640.058   -1284.2046    342.65984   -941.54481   -1516.0451    806.06181   -1284.2046            0            0            0            0            0   -574.22138   -27.436731 
 4885000     294.2886    416.31212     850.0395    30518.521   -1300.7617    350.01015   -950.75157     -1528.52    802.14292   -1300.7617            0            0            0            0            0   -574.38468   -27.545995 
 4890000    320.13459   -171.88343    835.82178    31037.656   -1275.5713    380.74991   -894.82137   -1505.7561    804.71577   -1275.5713            0            0            0            0            0   -574.53095   -27.085262 
 4895000    324.15519    86.161041    858.23247    30227.181   -1321.7039    385.53177   -936.17213   -1556.2363    808.72027   -1321.7039            0            0            0            0            0   -574.18787   -27.811493 
 4900000    306.40816    31.998202    853.39408    30398.557   -1327.1309    364.42446   -962.70645   -1548.8383    796.10146   -1327.1309            0            0            0            0            0   -574.39409   -27.654702 
 4905000    317.43243    223.43822    851.60359     30462.47   -1314.0453    377.53611    -936.5092   -1537.5131    797.75081   -1314.0453            0            0            0            0            0   -574.28306    -27.59668 
 4910000    316.06887    254.96641    846.48062    30646.831   -1290.5953    375.91436   -914.68096   -1518.1546    802.07107   -1290.5953            0            0            0            0            0   -574.51182   -27.430667 
 4915000    306.21363   -108.77675    841.43231    30830.702   -1292.1592     364.1931   -927.96607   -1525.6159    807.49597   -1292.1592            0            0            0            0            0   -574.03928   -27.267074 
 4920000    319.28806    608.63791    861.51967    30111.847   -1312.4643    379.74309   -932.72121   -1540.0259    801.89973   -1312.4643            0            0            0            0            0   -574.33814   -27.918016 
 4925000    298.63177     391.0693    870.07003    29815.932   -1349.3464    355.17567    -994.1707   -1582.4087    807.46162   -1349.3464            0            0            0            0            0   -574.39924   -28.195095 
 4930000    318.35347   -553.63522    855.34916    30329.075   -1353.4554    378.63153   -974.82385   -1567.0471    787.90712   -1353.4554            0            0            0            0            0   -574.31541   -27.718057 
 4935000    332.80363    449.04995    859.20992    30192.794     -1318.94    395.81774   -923.12231   -1545.0708    800.57497     -1318.94            0            0            0            0            0   -574.44423   -27.843167 
 4940000    305.91538   -118.37038       829.88    31259.879    -1259.071    363.83838   -895.23267   -1490.5932     805.8896    -1259.071            0            0            0            0            0   -574.36749   -26.892715 
 4945000    322.23551    92.607325    847.59991    30606.361    -1304.414    383.24861   -921.16544   -1528.5832    798.64411    -1304.414            0            0            0            0            0   -574.47498   -27.466938 
 4950000    306.41405   -433.80667    853.98138    30377.651   -1336.9419    364.43147   -972.51048   -1561.8223    799.10189   -1336.9419            0            0            0            0            0   -574.22151   -27.673734 
 4955000    320.51972    415.96044    858.03754    30234.048   -1323.2568    381.20795   -942.04887    -1547.237    798.36241   -1323.2568            0            0            0            0            0   -574.38224   -27.805176 
 4960000    312.62908    129.74419    860.74798    30138.843   -1335.4082    371.82327   -963.58493   -1559.8357    798.75548   -1335.4082            0            0            0            0            0   -574.32796   -27.893009 
 4965000    303.79947   -94.056171    837.93481    30959.388   -1276.3162    361.32184    -914.9944   -1505.4345    803.51601   -1276.3162            0            0            0            0            0   -574.39777   -27.153736 
 4970000    308.76569   -210.08769     847.3938    30613.805   -1308.3509    367.22837   -941.12251   -1539.8486    805.94914   -1308.3509            0            0            0            0            0   -574.45145   -27.460259 
 4975000    304.12665   -24.803115    863.68056    30036.509   -1343.5494    361.71097   -981.83845   -1572.5181    803.15022   -1343.5494            0            0            0            0            0   -574.18154   -27.988041 
 4980000    298.59606    -45.36095    848.05545     30589.92   -1304.9595     355.1332   -949.82633   -1527.5715    797.08306   -1304.9595            0            0            0            0            0   -574.47107   -27.481701 
 4985000    294.71221   -20.576157    850.59659    30498.533   -1314.2904    350.51397   -963.77642   -1537.3695    797.37779   -1314.2904            0            0            0            0            0   -574.29873   -27.564048 
 4990000    306.22192     350.1157    863.43219    30045.149   -1340.5281    364.20296   -976.32515   -1558.3794    792.22846   -1340.5281            0            0            0            0            0   -574.37718   -27.979992 
 4995000    317.59419    100.89986    846.98661    30628.523   -1296.3189    377.72849   -918.59039   -1526.8019    804.85671   -1296.3189            0            0            0            0            0   -574.37369   -27.447064 
 5000000    301.42582   -551.86004    840.45378    30866.598   -1315.3751    358.49875   -956.87635   -1543.2418    802.35837   -1315.3751            0            0            0            0            0   -574.49163   -27.235364 
Loop time of 168226 on 1 procs for 5000000 steps with 2400 atoms

Performance: 2.568 ns/day, 9.346 hours/ns, 29.722 timesteps/s
100.0% CPU use with 1 MPI tasks x 1 OpenMP threads

MPI task timing breakdown:
Section |  min time  |  avg time  |  max time  |%varavg| %total
---------------------------------------------------------------
Pair    | 1.5528e+05 | 1.5528e+05 | 1.5528e+05 |   0.0 | 92.30
Bond    | 9.1822     | 9.1822     | 9.1822     |   0.0 |  0.01
Kspace  | 4906.1     | 4906.1     | 4906.1     |   0.0 |  2.92
Neigh   | 4579.1     | 4579.1     | 4579.1     |   0.0 |  2.72
Comm    | 523.85     | 523.85     | 523.85     |   0.0 |  0.31
Output  | 0.061184   | 0.061184   | 0.061184   |   0.0 |  0.00
Modify  | 2798.4     | 2798.4     | 2798.4     |   0.0 |  1.66
Other   |            | 128.6      |            |       |  0.08

Nlocal:        2400.00 ave        2400 max        2400 min
Histogram: 1 0 0 0 0 0 0 0 0 0
Nghost:        18635.0 ave       18635 max       18635 min
Histogram: 1 0 0 0 0 0 0 0 0 0
Neighs:    1.80362e+06 ave 1.80362e+06 max 1.80362e+06 min
Histogram: 1 0 0 0 0 0 0 0 0 0

Total # of neighbors = 1803620
Ave neighs/atom = 751.50833
Ave special neighs/atom = 8.5000000
Neighbor list builds = 79513
Dangerous builds = 0
Total wall time: 56:05:56
