LAMMPS (29 Sep 2021 - Update 2)
OMP_NUM_THREADS environment is not set. Defaulting to 1 thread. (src/comm.cpp:98)
  using 1 OpenMP thread(s) per MPI task
Reading data file ...
  orthogonal box = (-15.466318 -15.466318 -15.466318) to (15.466318 15.466318 15.466318)
  1 by 1 by 1 MPI processor grid
  reading atoms ...
  2400 atoms
  scanning bonds ...
  3 = max bonds/atom
  scanning angles ...
  3 = max angles/atom
  scanning dihedrals ...
  4 = max dihedrals/atom
  reading bonds ...
  2400 bonds
  reading angles ...
  3600 angles
  reading dihedrals ...
  3600 dihedrals
Finding 1-2 1-3 1-4 neighbors ...
  special bond factors lj:    0        0        0       
  special bond factors coul:  0        0        0       
     3 = max # of 1-2 neighbors
     4 = max # of 1-3 neighbors
     8 = max # of 1-4 neighbors
    10 = max # of special neighbors
  special bonds CPU = 0.001 seconds
  read_data CPU = 0.020 seconds
  200 rigid bodies with 2400 atoms
PPPM initialization ...
  using 12-bit tables for long-range coulomb (src/kspace.cpp:340)
  G vector (1/distance) = 0.1428774
  grid = 6 6 6
  stencil order = 5
  estimated absolute RMS force accuracy = 0.0078609937
  estimated relative force accuracy = 2.3673149e-05
  using double precision FFTW3
  3d grid and FFT values/proc = 1331 216
Neighbor list info ...
  update every 1 steps, delay 10 steps, check yes
  max neighbors/atom: 2000, page size: 100000
  master list distance cutoff = 16.655
  ghost atom cutoff = 16.655
  binsize = 8.3275, bins = 4 4 4
  1 neighbor lists, perpetual/occasional/extra = 1 0 0
  (1) pair lj/cut/coul/long, perpetual
      attributes: half, newton on
      pair build: half/bin/newton
      stencil: half/bin/3d
      bin: standard
Setting up Verlet run ...
  Unit style    : real
  Current step  : 0
  Time step     : 1
Per MPI rank memory allocation (min/avg/max) = 29.12 | 29.12 | 29.12 Mbytes
Step Temp E_pair E_mol TotEng Press 
       0    305.66469     12647.25            0     13010.79    97490.294 
    5000    9535.6757    1657.5474            0    12998.739    70047.816 
Loop time of 194.75 on 1 procs for 5000 steps with 2400 atoms

Performance: 2.218 ns/day, 10.819 hours/ns, 25.674 timesteps/s
100.0% CPU use with 1 MPI tasks x 1 OpenMP threads

MPI task timing breakdown:
Section |  min time  |  avg time  |  max time  |%varavg| %total
---------------------------------------------------------------
Pair    | 162.16     | 162.16     | 162.16     |   0.0 | 83.27
Bond    | 0.0059048  | 0.0059048  | 0.0059048  |   0.0 |  0.00
Kspace  | 4.9107     | 4.9107     | 4.9107     |   0.0 |  2.52
Neigh   | 26.061     | 26.061     | 26.061     |   0.0 | 13.38
Comm    | 0.71715    | 0.71715    | 0.71715    |   0.0 |  0.37
Output  | 3.1655e-05 | 3.1655e-05 | 3.1655e-05 |   0.0 |  0.00
Modify  | 0.7918     | 0.7918     | 0.7918     |   0.0 |  0.41
Other   |            | 0.1044     |            |       |  0.05

Nlocal:        2400.00 ave        2400 max        2400 min
Histogram: 1 0 0 0 0 0 0 0 0 0
Nghost:        19176.0 ave       19176 max       19176 min
Histogram: 1 0 0 0 0 0 0 0 0 0
Neighs:    1.88198e+06 ave 1.88198e+06 max 1.88198e+06 min
Histogram: 1 0 0 0 0 0 0 0 0 0

Total # of neighbors = 1881977
Ave neighs/atom = 784.15708
Ave special neighs/atom = 8.5000000
Neighbor list builds = 428
Dangerous builds = 60
  create bodies CPU = 0.000 seconds
  200 rigid bodies with 2400 atoms
  3.8930168 = max distance from body owner to body atom
PPPM initialization ...
  using 12-bit tables for long-range coulomb (src/kspace.cpp:340)
  G vector (1/distance) = 0.1428774
  grid = 6 6 6
  stencil order = 5
  estimated absolute RMS force accuracy = 0.0078609937
  estimated relative force accuracy = 2.3673149e-05
  using double precision FFTW3
  3d grid and FFT values/proc = 1331 216
Setting up Verlet run ...
  Unit style    : real
  Current step  : 5000
  Time step     : 1
Per MPI rank memory allocation (min/avg/max) = 36.99 | 36.99 | 36.99 Mbytes
Step Temp E_pair E_mol TotEng Press Volume 
    5000    9535.6757    1657.5474            0    12998.739     79058.66    29597.212 
 1005000    316.95315   -1312.3443            0   -935.37821   -151.38798    30750.943 
Loop time of 33259.5 on 1 procs for 1000000 steps with 2400 atoms

Performance: 2.598 ns/day, 9.239 hours/ns, 30.067 timesteps/s
100.0% CPU use with 1 MPI tasks x 1 OpenMP threads

MPI task timing breakdown:
Section |  min time  |  avg time  |  max time  |%varavg| %total
---------------------------------------------------------------
Pair    | 30666      | 30666      | 30666      |   0.0 | 92.20
Bond    | 1.857      | 1.857      | 1.857      |   0.0 |  0.01
Kspace  | 985.34     | 985.34     | 985.34     |   0.0 |  2.96
Neigh   | 919.44     | 919.44     | 919.44     |   0.0 |  2.76
Comm    | 105.34     | 105.34     | 105.34     |   0.0 |  0.32
Output  | 3.0491e-05 | 3.0491e-05 | 3.0491e-05 |   0.0 |  0.00
Modify  | 556.41     | 556.41     | 556.41     |   0.0 |  1.67
Other   |            | 25.48      |            |       |  0.08

Nlocal:        2400.00 ave        2400 max        2400 min
Histogram: 1 0 0 0 0 0 0 0 0 0
Nghost:        18753.0 ave       18753 max       18753 min
Histogram: 1 0 0 0 0 0 0 0 0 0
Neighs:    1.81529e+06 ave 1.81529e+06 max 1.81529e+06 min
Histogram: 1 0 0 0 0 0 0 0 0 0

Total # of neighbors = 1815293
Ave neighs/atom = 756.37208
Ave special neighs/atom = 8.5000000
Neighbor list builds = 16095
Dangerous builds = 0
PPPM initialization ...
  using 12-bit tables for long-range coulomb (src/kspace.cpp:340)
  G vector (1/distance) = 0.14204811
  grid = 6 6 6
  stencil order = 5
  estimated absolute RMS force accuracy = 0.0081146915
  estimated relative force accuracy = 2.4437152e-05
  using double precision FFTW3
  3d grid and FFT values/proc = 1331 216
Setting up Verlet run ...
  Unit style    : real
  Current step  : 0
  Time step     : 1
Per MPI rank memory allocation (min/avg/max) = 36.99 | 36.99 | 36.99 Mbytes
Step Temp Press v_dens Volume PotEng KinEng TotEng E_vdwl E_coul E_pair E_bond E_angle E_dihed E_impro E_mol E_long E_tail 
       0    316.95315    -26.61195    843.61472    30750.943   -1312.3727    376.96608   -935.40664   -1536.0561    799.35542   -1312.3727            0            0            0            0            0   -575.67206   -27.337796 
    5000    329.82595   -168.64485    828.14637    31325.318   -1260.1992    392.27625   -867.92294   -1490.3594    805.64605   -1260.1992            0            0            0            0            0   -575.48584   -26.836536 
   10000    318.16158    363.05544    860.57985    30144.731   -1335.4534    378.40332   -957.05007   -1557.1583    797.23751   -1335.4534            0            0            0            0            0    -575.5326   -27.887561 
   15000    289.51999    254.15801    860.38399    30151.594   -1342.5247    344.33863   -998.18607   -1560.6358    793.64239   -1342.5247            0            0            0            0            0   -575.53126   -27.881214 
   20000    308.05857   -47.849882    854.56615    30356.864   -1321.8191    366.38737   -955.43173   -1544.3685    798.04046   -1321.8191            0            0            0            0            0   -575.49103   -27.692684 
   25000    305.11763    78.049471    859.65964        30177   -1326.4524    362.88958   -963.56281   -1558.2466    807.07086   -1326.4524            0            0            0            0            0   -575.27663   -27.857741 
   30000    292.82293   -114.77357    834.30544    31094.066    -1282.639    348.26697   -934.37203   -1512.9871    805.82599    -1282.639            0            0            0            0            0   -575.47792   -27.036124 
   35000    312.44807    -292.1556    848.12885    30587.273   -1324.1114    371.60799   -952.50344   -1548.8455    799.89999   -1324.1114            0            0            0            0            0   -575.16591   -27.484079 
   40000    290.83159   -198.73388    831.12412    31213.086   -1261.4997    345.89857   -915.60109   -1490.5432    804.46244   -1261.4997            0            0            0            0            0   -575.41889   -26.933032 
   45000    320.19853    5.6563128    836.88586    30998.192   -1279.6365    380.82594   -898.81052     -1507.49    803.39861   -1279.6365            0            0            0            0            0   -575.54502   -27.119744 
   50000    333.32355    168.83198    836.73396     31003.82   -1281.0065    396.43611    -884.5704   -1508.1346    802.79668   -1281.0065            0            0            0            0            0   -575.66859   -27.114821 
   55000    311.52442    1.1306555    852.37058    30435.059   -1315.4284    370.50946   -944.91892    -1549.987    809.95231   -1315.4284            0            0            0            0            0   -575.39372   -27.621535 
   60000    316.87962   -424.94622    837.47393    30976.425   -1283.7831    376.87863   -906.90446   -1515.3926    807.08378   -1283.7831            0            0            0            0            0   -575.47427   -27.138801 
   65000     314.3832   -54.171484    862.40124    30081.066   -1345.1374    373.90952   -971.22789   -1569.8406    800.23503   -1345.1374            0            0            0            0            0    -575.5318   -27.946584 
   70000    326.28527    282.20658    839.53271    30900.462   -1291.0335    388.06517   -902.96831   -1511.3349    795.76411   -1291.0335            0            0            0            0            0   -575.46267   -27.205517 
   75000    315.41504    297.72407    840.93024    30849.109   -1278.4289    375.13674   -903.29212   -1507.5943    804.59922   -1278.4289            0            0            0            0            0   -575.43377   -27.250804 
   80000    322.56356    98.162086    848.51118    30573.491   -1306.4183    383.63877   -922.77956    -1535.798    804.87065   -1306.4183            0            0            0            0            0   -575.49096   -27.496469 
   85000    334.23754   -142.04081    849.20126    30548.646   -1314.4402    397.52315   -916.91703    -1542.497    803.34655   -1314.4402            0            0            0            0            0   -575.28972   -27.518831 
   90000    312.78381    208.61006     835.4058    31053.111    -1271.626     372.0073   -899.61871   -1496.4756     800.0517    -1271.626            0            0            0            0            0   -575.20207   -27.071782 
   95000    308.70647   -461.28111    844.62214    30714.266   -1312.5397    367.15794   -945.38178   -1540.7814    803.67066   -1312.5397            0            0            0            0            0   -575.42898   -27.370442 
  100000    307.76621    206.11832    846.93231    30630.486   -1285.4817    366.03966   -919.44203   -1517.2869    807.20017   -1285.4817            0            0            0            0            0   -575.39494   -27.445305 
  105000    324.56362   -98.691581    860.57037    30145.064   -1344.8188    386.01754   -958.80123   -1569.3531    799.93727   -1344.8188            0            0            0            0            0   -575.40297   -27.887254 
  110000    323.06964    125.50553    869.62834    29831.075   -1357.0401    384.24068    -972.7994    -1577.247    795.44438   -1357.0401            0            0            0            0            0   -575.23748   -28.180782 
  115000    310.46683    374.52957    833.82446    31112.003   -1256.0456    369.25162   -886.79399   -1486.5682    806.09875   -1256.0456            0            0            0            0            0   -575.57618   -27.020538 
  120000    313.49968   -408.55665    839.90559    30886.744   -1299.9368    372.85871   -927.07813   -1528.6021    804.03616   -1299.9368            0            0            0            0            0   -575.37085     -27.2176 
  125000    293.19355   -513.07801    837.72253    30967.233   -1292.2385    348.70775   -943.53075   -1522.1973    805.65387   -1292.2385            0            0            0            0            0   -575.69507   -27.146857 
  130000    311.47803    33.969857    852.90822    30415.873    -1318.704    370.45428   -948.24975    -1544.975    801.61239    -1318.704            0            0            0            0            0   -575.34138   -27.638957 
  135000    310.49007   -50.884426    823.83189    31489.372    -1240.506    369.27925   -871.22675   -1475.0585    810.03347    -1240.506            0            0            0            0            0   -575.48098   -26.696723 
  140000     314.0885   -162.76167    842.02008    30809.181   -1294.9703    373.55902   -921.41126   -1521.8671    802.41388   -1294.9703            0            0            0            0            0   -575.51702   -27.286121 
  145000    322.73053   -60.182313    850.66307     30496.15   -1309.3072    383.83736   -925.46987   -1533.2547    799.27193   -1309.3072            0            0            0            0            0   -575.32451   -27.566202 
  150000    310.43993   -260.20843     849.8835    30524.123   -1322.6672    369.21963   -953.44753   -1544.0374    796.80313   -1322.6672            0            0            0            0            0   -575.43293    -27.54094 
  155000    318.95554   -257.31487    832.47133    31162.573   -1278.6147     379.3476    -899.2671   -1507.0002    803.88032   -1278.6147            0            0            0            0            0   -575.49483   -26.976689 
  160000    324.34347     250.3854    848.95944    30557.347   -1304.2887     385.7557   -918.53303   -1524.4181    795.58692   -1304.2887            0            0            0            0            0   -575.45755   -27.510995 
  165000    319.22117    457.94603    837.91955    30959.951   -1259.9129    379.66353   -880.24941   -1486.7881    802.29551   -1259.9129            0            0            0            0            0    -575.4204   -27.153241 
  170000    319.93892    174.09176    844.58573     30715.59   -1296.6757    380.51718   -916.15849   -1519.3971    797.88727   -1296.6757            0            0            0            0            0   -575.16583   -27.369263 
  175000    301.61496    110.40043    846.79059    30635.613   -1298.5187     358.7237   -939.79502   -1527.2801    804.27507   -1298.5187            0            0            0            0            0   -575.51368   -27.440712 
  180000    321.20674   -206.54898     834.6145    31082.552   -1270.3777    382.02505   -888.35268   -1500.4642    805.62922   -1270.3777            0            0            0            0            0    -575.5427   -27.046139 
  185000    312.26165    201.22738    831.50838    31198.662   -1248.5799    371.38628   -877.19367   -1482.0887    809.16013   -1248.5799            0            0            0            0            0   -575.65135   -26.945484 
  190000    330.89565    4.4630322    840.38324    30869.189   -1297.2607     393.5485   -903.71216   -1516.6581    794.92882   -1297.2607            0            0            0            0            0   -575.53141   -27.233078 
  195000    307.52478    436.81602    847.38347    30614.178   -1286.0362    365.75251   -920.28368   -1513.7364     803.2541   -1286.0362            0            0            0            0            0   -575.55388   -27.459925 
  200000    294.15134    515.27176    863.82335    30031.544   -1340.5292     349.8469   -990.68229   -1558.1917       793.02   -1340.5292            0            0            0            0            0   -575.35753   -27.992668 
  205000    308.05214    55.485271    852.06161    30446.095   -1316.8547    366.37972   -950.47495   -1542.1647    800.71285   -1316.8547            0            0            0            0            0   -575.40283   -27.611522 
  210000    316.89737      326.609    846.99169    30628.339   -1272.1168    376.89974   -895.21709   -1498.8578    802.45358   -1272.1168            0            0            0            0            0   -575.71265   -27.447229 
  215000    315.22488    74.443558    838.39734    30942.308   -1286.0204    374.91057   -911.10985     -1508.57    797.96759   -1286.0204            0            0            0            0            0   -575.41805   -27.168724 
  220000    304.87206   -370.21145    853.41865    30397.682   -1322.7917    362.59752   -960.19416   -1549.4588    802.26602   -1322.7917            0            0            0            0            0   -575.59889   -27.655498 
  225000    305.77329   -129.25994     837.3963    30979.297   -1272.7061    363.66938   -909.03676   -1507.1369    809.93326   -1272.7061            0            0            0            0            0   -575.50246   -27.136285 
  230000    314.63628    -109.8767    842.83565    30779.368   -1297.3971    374.21052   -923.18661   -1522.3051     800.4631   -1297.3971            0            0            0            0            0   -575.55514    -27.31255 
  235000    338.43446   -117.93499    847.72324    30601.908   -1321.9758    402.51473   -919.46104   -1538.4182    791.87488   -1321.9758            0            0            0            0            0    -575.4325   -27.470935 
  240000    302.35015    77.590727     836.8345    31000.095   -1278.9313     359.5981   -919.33323   -1503.1206    799.67603   -1278.9313            0            0            0            0            0   -575.48674    -27.11808 
  245000    317.51934    -34.73872    860.09744    30161.639   -1345.4085    377.63947   -967.76903   -1564.9056    794.81489   -1345.4085            0            0            0            0            0   -575.31778   -27.871928 
  250000    310.54997    379.16593    846.88016    30632.372   -1285.6722     369.3505   -916.32168   -1516.1721    805.77741   -1285.6722            0            0            0            0            0   -575.27752   -27.443615 
  255000    307.03505   -318.37684     837.6644    30969.382   -1300.1339    365.17005   -934.96387   -1517.5519    792.94396   -1300.1339            0            0            0            0            0   -575.52602   -27.144973 
  260000    306.49997    166.53689    847.35377    30615.251   -1295.7949    364.53366   -931.26119   -1523.9922    803.87121   -1295.7949            0            0            0            0            0   -575.67385   -27.458962 
  265000     327.1714   -19.239011    855.51711    30323.121   -1319.7557    389.11909   -930.63658   -1548.0154    803.76543   -1319.7557            0            0            0            0            0   -575.50574     -27.7235 
  270000    312.42614    241.83474    832.23285    31171.503   -1257.8786     371.5819   -886.29674   -1490.5176    808.08871   -1257.8786            0            0            0            0            0   -575.44977   -26.968961 
  275000    296.02921    -315.5211    848.89458    30559.682   -1316.0194    352.08033    -963.9391   -1550.8401    809.99379   -1316.0194            0            0            0            0            0   -575.17315   -27.508893 
  280000     320.1964   -39.464098    844.44115    30720.848   -1306.6129    380.82341   -925.78952   -1531.0748    800.10488   -1306.6129            0            0            0            0            0   -575.64296   -27.364577 
  285000      313.976    -397.5288    835.54744    31047.846   -1280.6098    373.42523   -907.18453   -1508.0138    803.00826   -1280.6098            0            0            0            0            0   -575.60425   -27.076372 
  290000    298.93633   -60.547129    839.67777    30895.124   -1279.7742     355.5379    -924.2363   -1519.2256    815.01191   -1279.7742            0            0            0            0            0   -575.56053   -27.210217 
  295000    309.00103   -428.59541    842.67409    30785.269   -1301.0753    367.50828     -933.567   -1533.3706    807.72711   -1301.0753            0            0            0            0            0   -575.43176   -27.307315 
  300000    316.71557     349.0562    852.42121    30433.251   -1303.8818    376.68352   -927.19831   -1530.1899    801.85095   -1303.8818            0            0            0            0            0   -575.54285   -27.623176 
  305000    315.17286    70.830788    841.40037    30831.872   -1293.3535     374.8487   -918.50476   -1518.2166    800.45243   -1293.3535            0            0            0            0            0   -575.58931   -27.266039 
  310000      294.225    163.41491    853.05005    30410.817   -1307.5039    349.93451   -957.56942    -1537.233    805.00324   -1307.5039            0            0            0            0            0   -575.27417   -27.643553 
  315000    313.76248    72.194979    846.72648    30637.932   -1301.3503    373.17127   -928.17901   -1524.9028    799.03877   -1301.3503            0            0            0            0            0   -575.48627   -27.438635 
  320000    309.01286    668.40347    853.31489    30401.378    -1298.279    367.52234    -930.7567   -1524.7742    801.69027    -1298.279            0            0            0            0            0   -575.19507   -27.652136 
  325000    310.14417   -604.35133    820.99183    31598.303   -1263.5626    368.86787   -894.69469   -1491.8652    803.67514   -1263.5626            0            0            0            0            0   -575.37249   -26.604689 
  330000     312.6809   -172.15591    842.42485    30794.377   -1293.8358    371.88491   -921.95089   -1523.0614    804.70446   -1293.8358            0            0            0            0            0   -575.47889   -27.299238 
  335000    302.78069   -362.89193    839.35376     30907.05   -1289.8382    360.11016     -929.728   -1517.2007    802.89717   -1289.8382            0            0            0            0            0   -575.53463   -27.199718 
  340000    321.01622   -143.91625    829.41901    31277.254   -1271.3181    381.79846   -889.51966   -1499.2014    803.23378   -1271.3181            0            0            0            0            0   -575.35046   -26.877777 
  345000    308.82087    181.80579    853.49671    30394.902   -1311.6528      367.294   -944.35883   -1547.0202    810.87404   -1311.6528            0            0            0            0            0   -575.50668   -27.658028 
  350000    324.98984    350.51977    838.14295    30951.699   -1270.6511    386.52446   -884.12664   -1500.7681    805.58581   -1270.6511            0            0            0            0            0   -575.46883   -27.160481 
  355000    297.51254   -228.97894    840.15798    30877.465    -1284.979    353.84452   -931.13451   -1512.6634    803.09689    -1284.979            0            0            0            0            0   -575.41247   -27.225779 
  360000    315.84895    13.729023    852.12052     30443.99   -1305.6707     375.6528   -930.01789   -1534.6272    804.57567   -1305.6707            0            0            0            0            0   -575.61914   -27.613431 
  365000    302.21502   -55.246373     849.2026    30548.598   -1308.5794    359.43739   -949.14203   -1538.9456    805.78576   -1308.5794            0            0            0            0            0   -575.41962   -27.518875 
  370000    304.65817   -204.58436    847.66523    30604.002   -1316.4871    362.34313     -954.144   -1535.7453    795.01155   -1316.4871            0            0            0            0            0   -575.75342   -27.469056 
  375000    312.52821    84.030432    843.38887    30759.178   -1290.4533     371.7033   -918.74997   -1524.0007     809.2547   -1290.4533            0            0            0            0            0   -575.70723   -27.330478 
  380000     319.2366    756.51231    851.14919    30478.733   -1297.7462    379.68188   -918.06427   -1519.9376     797.7307   -1297.7462            0            0            0            0            0   -575.53921   -27.581955 
  385000    301.10837    113.88705    835.40244    31053.235     -1277.77     358.1212   -919.64881   -1505.6007    803.27911     -1277.77            0            0            0            0            0   -575.44842   -27.071673 
  390000     319.8454    112.34067    852.14585    30443.085    -1316.569    380.40595   -936.16309   -1538.1275    797.07228    -1316.569            0            0            0            0            0   -575.51385   -27.614252 
  395000    326.12309   -138.98879    842.59836    30788.036    -1301.879    387.87229   -914.00675   -1524.9578    798.47547    -1301.879            0            0            0            0            0   -575.39666   -27.304861 
  400000    298.66149   -288.90126     847.8231    30598.303   -1312.3427    355.21101   -957.13164   -1539.3974    802.59257   -1312.3427            0            0            0            0            0    -575.5378   -27.474171 
  405000    335.84787    542.30635    844.67585    30712.312   -1291.0934    399.43838   -891.65506   -1508.3007    792.71361   -1291.0934            0            0            0            0            0   -575.50633   -27.372183 
  410000    322.18173    857.55412    841.99991    30809.918   -1272.1651    383.18466   -888.98042   -1494.9108    798.03367   -1272.1651            0            0            0            0            0   -575.28796   -27.285468 
  415000    306.98203   -447.14189    845.83328    30670.286   -1299.2552      365.107   -934.14821   -1530.5259    806.54796   -1299.2552            0            0            0            0            0    -575.2773    -27.40969 
  420000    315.46472    64.212986    855.05262    30339.593   -1320.2223    375.19582   -945.02648   -1546.9325    802.28531   -1320.2223            0            0            0            0            0   -575.57513   -27.708448 
  425000    343.95714    267.28991    842.98426    30773.942   -1286.7011    409.08309   -877.61801   -1515.0438    803.94421   -1286.7011            0            0            0            0            0   -575.60155   -27.317366 
  430000    344.19024    -66.91204    816.10472    31787.524   -1235.8081    409.36032   -826.44777    -1461.216    801.01438   -1235.8081            0            0            0            0            0   -575.60643    -26.44632 
  435000    294.60379     270.5982    833.36167     31129.28   -1262.5885    350.38501    -912.2035   -1490.5287    803.54956   -1262.5885            0            0            0            0            0   -575.60935   -27.005541 
  440000    307.06646    336.12038    845.48372    30682.967   -1282.6893    365.20741   -917.48187   -1512.7003    805.55382   -1282.6893            0            0            0            0            0    -575.5428   -27.398362 
  445000    314.37522    586.77043    851.59108    30462.917   -1287.5585    373.90004    -913.6585   -1519.3789    807.48322   -1287.5585            0            0            0            0            0   -575.66285   -27.596275 
  450000    311.83592    461.01054    852.79924     30419.76   -1295.1038    370.87993   -924.22382   -1525.8787    806.21211   -1295.1038            0            0            0            0            0   -575.43716   -27.635426 
  455000    321.41051   -36.604589    841.72153    30820.108   -1295.1516     382.2674   -912.88416   -1522.6455    803.01076   -1295.1516            0            0            0            0            0   -575.51684   -27.276446 
  460000    327.61007    383.30165    860.80608    30136.809   -1328.8046    389.64081   -939.16378   -1545.9668    792.80781   -1328.8046            0            0            0            0            0   -575.64555   -27.894892 
  465000    321.63237   -41.967575    832.43124    31164.074   -1264.8461    382.53128   -882.31481   -1498.3612    808.92376   -1264.8461            0            0            0            0            0   -575.40863    -26.97539 
  470000    299.18239   -310.86292    843.84742    30742.464   -1305.9316    355.83054   -950.10101    -1529.117    798.90398   -1305.9316            0            0            0            0            0   -575.71857   -27.345337 
  475000    305.18637    388.57088    842.17049    30803.678   -1270.2458    362.97133   -907.27448   -1498.7136    803.89374   -1270.2458            0            0            0            0            0   -575.42592   -27.290995 
  480000    302.58717    90.577032    846.74083    30637.413   -1299.5128    359.87999   -939.63278   -1525.1708    800.94206   -1299.5128            0            0            0            0            0   -575.28401     -27.4391 
  485000    316.49588    159.56312    858.39103    30221.598   -1318.0275    376.42223   -941.60528   -1548.8617    806.30384   -1318.0275            0            0            0            0            0   -575.46959   -27.816631 
  490000    301.32791   -76.680036    835.86557     31036.03   -1283.4667     358.3823   -925.08441   -1509.5866    801.35111   -1283.4667            0            0            0            0            0   -575.23122   -27.086681 
  495000    323.01581   -14.328099    855.13099    30336.813   -1327.4677    384.17666   -943.29105   -1546.6461    794.89308   -1327.4677            0            0            0            0            0   -575.71471   -27.710987 
  500000    328.64126   -41.315878    840.78368    30854.486    -1290.561    390.86725    -899.6937    -1513.492    798.40515    -1290.561            0            0            0            0            0   -575.47407   -27.246055 
  505000    305.45984    360.27233    855.09379    30338.132   -1317.9517    363.29659   -954.65514   -1539.2469    796.81777   -1317.9517            0            0            0            0            0   -575.52256   -27.709782 
  510000     307.2047   -15.743919    843.14933    30767.917   -1284.9081    365.37182   -919.53628     -1516.28    806.93573   -1284.9081            0            0            0            0            0   -575.56388   -27.322715 
  515000    333.76057   0.57340163    854.19829    30369.938   -1313.3233    396.95587   -916.36741   -1547.7359    809.80332   -1313.3233            0            0            0            0            0   -575.39073   -27.680763 
  520000    301.92468   -312.15784    846.24431    30655.389   -1311.3919    359.09207   -952.29983   -1538.6509    802.67861   -1311.3919            0            0            0            0            0   -575.41962    -27.42301 
  525000      301.655   -306.71131    851.52699     30465.21   -1330.7755    358.77133   -972.00417   -1557.7691    802.22485   -1330.7755            0            0            0            0            0   -575.23122   -27.594198 
  530000    297.53122   -359.69957    840.01577    30882.692   -1287.6171    353.86673   -933.75034   -1512.0536    799.81647   -1287.6171            0            0            0            0            0   -575.37992   -27.221171 
  535000    307.98062    143.06974    860.25766    30156.021   -1326.1948    366.29466   -959.90018   -1562.2515    811.65558   -1326.1948            0            0            0            0            0   -575.59892    -27.87712 
  540000    322.69654    161.64537    864.34836    30013.302   -1333.0566    383.79694   -949.25969   -1559.5623    802.00507   -1333.0566            0            0            0            0            0   -575.49937   -28.009681 
  545000    312.33991   -247.21452    841.73386    30819.657   -1296.5444    371.47935   -925.06507    -1526.051    804.94182   -1296.5444            0            0            0            0            0   -575.43523   -27.276846 
  550000    328.37101   -84.649963    854.09049    30373.771   -1336.0247    390.54583   -945.47885   -1553.6379    793.02242   -1336.0247            0            0            0            0            0   -575.40919    -27.67727 
  555000    300.21522   -337.58313    844.28958    30726.364   -1319.9779    357.05893   -962.91896   -1547.5969     803.0806   -1319.9779            0            0            0            0            0   -575.46155   -27.359666 
  560000    303.73911    5.2977775    833.60198    31120.306   -1276.2516    361.25005   -915.00152   -1497.5437    796.77549   -1276.2516            0            0            0            0            0   -575.48333   -27.013328 
  565000    325.19643   -54.066786    838.60677    30934.581   -1275.4589    386.77016   -888.68869   -1507.9263    808.10655   -1275.4589            0            0            0            0            0    -575.6391   -27.175511 
  570000    290.87477    338.76453    854.21488    30369.348   -1304.3311    345.94994   -958.38115   -1536.2203    807.29055   -1304.3311            0            0            0            0            0   -575.40133     -27.6813 
  575000      316.477     265.3726     843.3316    30761.267   -1280.6117    376.39977   -904.21197   -1503.6616    798.41212   -1280.6117            0            0            0            0            0   -575.36224   -27.328622 
  580000    324.33818   -245.01791     841.4356    30830.581   -1298.4929    385.74942   -912.74353   -1517.6932    794.94788   -1298.4929            0            0            0            0            0   -575.74764   -27.267181 
  585000    314.52958   -309.06311    835.37385    31054.298   -1286.4375    374.08362   -912.35391   -1509.3846    798.44072   -1286.4375            0            0            0            0            0   -575.49363   -27.070746 
  590000    308.93762    336.64275    853.11848    30408.377   -1305.0971    367.43286   -937.66428   -1529.3953    799.93273   -1305.0971            0            0            0            0            0   -575.63461   -27.645771 
  595000    291.38723    -237.3232    847.19888    30620.848   -1322.6689    346.55942   -976.10944   -1538.9549    791.79965   -1322.6689            0            0            0            0            0   -575.51367   -27.453943 
  600000    316.60761    182.64961    836.70557    31004.871   -1265.7414    376.55511   -889.18633   -1495.0216    804.73557   -1265.7414            0            0            0            0            0   -575.45539   -27.113902 
  605000    309.63993    196.47971    844.21047    30729.243   -1291.6608    368.26815   -923.39267   -1516.5849     800.2696   -1291.6608            0            0            0            0            0   -575.34549   -27.357102 
  610000      314.525    118.50997    842.78051    30781.382   -1282.9357    374.07818   -908.85748   -1520.2507    812.72721   -1282.9357            0            0            0            0            0   -575.41215   -27.310763 
  615000    295.49571    31.824435    853.12855    30408.018    -1302.838    351.44581   -951.39219    -1536.407    809.18395    -1302.838            0            0            0            0            0   -575.61494   -27.646097 
  620000    319.17744    59.178586    830.18085    31248.551    -1253.267    379.61153   -873.65552   -1485.4553    807.64223    -1253.267            0            0            0            0            0   -575.45401   -26.902464 
  625000    316.17386    43.269219     837.9344    30959.403   -1284.9046    376.03923   -908.86533   -1507.3696    797.85794   -1284.9046            0            0            0            0            0   -575.39286   -27.153722 
  630000    310.71947   -367.70815    814.39562    31854.234   -1223.4982    369.55209   -853.94614   -1463.5593    815.29145   -1223.4982            0            0            0            0            0   -575.23042   -26.390935 
  635000     304.3573   -195.33875     843.6308    30750.357   -1300.8567    361.98528   -938.87143   -1521.9772     796.6709   -1300.8567            0            0            0            0            0   -575.55044   -27.338318 
  640000    297.98964     279.9779    847.70316    30602.633   -1295.4082    354.41196   -940.99623    -1520.733    800.75228   -1295.4082            0            0            0            0            0   -575.42746   -27.470284 
  645000     292.4239    61.826961    829.78295    31263.536   -1254.4429    347.79238   -906.65047   -1488.6571    809.57395   -1254.4429            0            0            0            0            0   -575.35966    -26.88957 
  650000    299.63456   -377.76082    815.11717    31826.036   -1228.3743    356.36832   -872.00603   -1461.3672    808.54429   -1228.3743            0            0            0            0            0   -575.55139   -26.414318 
  655000    314.10986   -39.318056     845.0959    30697.047   -1307.2805    373.58443   -933.69604   -1535.7725     803.8887   -1307.2805            0            0            0            0            0    -575.3967   -27.385795 
  660000    282.87119   -89.294996     850.4428    30504.049   -1320.8723    336.43093   -984.44138   -1550.0106    804.48333   -1320.8723            0            0            0            0            0     -575.345   -27.559064 
  665000    325.34867    101.83066    853.61182    30390.803   -1322.7142    386.95123   -935.76298   -1543.3754    796.34055   -1322.7142            0            0            0            0            0   -575.67939   -27.661758 
  670000     307.0957   -34.889065    850.54593     30500.35   -1307.4418    365.24218    -942.1996   -1539.6723    807.75304   -1307.4418            0            0            0            0            0   -575.52256   -27.562406 
  675000    306.66176    167.91912    848.36255    30578.847   -1312.5743    364.72609   -947.84825   -1533.2385    796.12385   -1312.5743            0            0            0            0            0   -575.45973   -27.491652 
  680000     306.2526   -350.13337    824.80968    31452.042   -1255.0033    364.23945   -890.76383   -1483.7095    804.31072   -1255.0033            0            0            0            0            0   -575.60453   -26.728409 
  685000    311.67733   -160.12434    851.81176    30455.025   -1320.1621    370.69131    -949.4708   -1545.1809    800.58384   -1320.1621            0            0            0            0            0   -575.56505   -27.603426 
  690000    327.09796   -377.83067    808.55279    32084.422    -1217.218    389.03174   -828.18627   -1447.6375    806.01577    -1217.218            0            0            0            0            0    -575.5963   -26.201595 
  695000    302.99621    337.91174    858.77402     30208.12    -1321.981    360.36649   -961.61452    -1546.545    800.05033    -1321.981            0            0            0            0            0   -575.48638   -27.829042 
  700000    300.89206   -162.81485     842.4565     30793.22   -1293.4538    357.86393   -935.58984   -1527.4154    809.29448   -1293.4538            0            0            0            0            0    -575.3329   -27.300264 
  705000    321.42019    1.1594205    827.01726    31368.086   -1248.1516    382.27892   -865.87272   -1478.8702    806.50954   -1248.1516            0            0            0            0            0   -575.79099   -26.799947 
  710000    312.48023   -335.56558    839.34931    30907.214    -1296.207    371.64625   -924.56075   -1523.5923     802.5863    -1296.207            0            0            0            0            0   -575.20099   -27.199573 
  715000    298.42034   -942.61433    814.49183    31850.471   -1252.9559     354.9242   -898.03169   -1481.1523    803.79482   -1252.9559            0            0            0            0            0    -575.5984   -26.394053 
  720000    318.72158     158.3095    839.43162    30904.183   -1282.6836    379.06935   -903.61425   -1516.3393    809.13799   -1282.6836            0            0            0            0            0   -575.48227   -27.202241 
  725000    315.83203    429.75751    847.36088    30614.994   -1295.3284    375.63268   -919.69573   -1516.3189    796.48282   -1295.3284            0            0            0            0            0    -575.4923   -27.459193 
  730000    313.01958   -111.12512    849.45338    30539.579   -1299.9473    372.28771   -927.65964   -1534.3249    809.81868   -1299.9473            0            0            0            0            0   -575.44118   -27.527001 
  735000    314.22092   -162.03187    842.20392    30802.456   -1291.6841    373.71651   -917.96763   -1521.9416    805.83841   -1291.6841            0            0            0            0            0   -575.58092   -27.292078 
  740000      324.273    81.233085     848.4205    30576.758   -1297.0731    385.67189    -911.4012   -1534.9182    813.48583   -1297.0731            0            0            0            0            0   -575.64069    -27.49353 
  745000    313.25697   -113.55537    844.39764    30722.432   -1302.8076    372.57005   -930.23757    -1530.454    802.97291   -1302.8076            0            0            0            0            0   -575.32652   -27.363167 
  750000    344.40636     33.88251    836.41814    31015.526   -1270.7271    409.61736   -861.10974   -1498.2819    803.14434   -1270.7271            0            0            0            0            0   -575.58949   -27.104587 
  755000    304.23158   -2.2422138    836.22181    31022.808   -1275.4761    361.83577   -913.64034   -1500.1587    800.24689   -1275.4761            0            0            0            0            0   -575.56427   -27.098225 
  760000    305.61211     -326.743    841.30872    30835.231   -1305.4735    363.47769   -941.99581   -1528.7398    798.83315   -1305.4735            0            0            0            0            0   -575.56688   -27.263069 
  765000    326.08237    393.66217    853.45842    30396.265   -1311.8498    387.82385   -924.02591   -1533.2995    796.97667   -1311.8498            0            0            0            0            0   -575.52693   -27.656787 
  770000    319.22922    395.07145     857.6381     30248.13   -1323.9967    379.67311    -944.3236   -1546.4136    797.70976   -1323.9967            0            0            0            0            0   -575.29289   -27.792232 
  775000    300.24236    63.516524    849.30736     30544.83   -1300.8692    357.09121   -943.77804   -1530.6814    805.46854   -1300.8692            0            0            0            0            0   -575.65636   -27.522269 
  780000    309.45785    207.51611    857.85675     30240.42   -1323.8432     368.0516   -955.79161    -1549.924    801.76358   -1323.8432            0            0            0            0            0   -575.68276   -27.799317 
  785000    315.64407    72.044241    860.37662    30151.852   -1342.3409    375.40913   -966.93177   -1570.9959      804.188   -1342.3409            0            0            0            0            0   -575.53296   -27.880975 
  790000    332.11819   -318.11531    845.25561    30691.247   -1308.0395    395.00252   -913.03698   -1537.7398    805.17596   -1308.0395            0            0            0            0            0   -575.47563    -27.39097 
  795000    323.53741   -359.29202    830.74864    31227.194   -1285.0577    384.79702   -900.26063   -1510.7284    800.98704   -1285.0577            0            0            0            0            0   -575.31635   -26.920864 
  800000    313.93941    367.14953    845.76763    30672.667   -1285.7628     373.3817   -912.38107   -1512.1465    801.82582   -1285.7628            0            0            0            0            0   -575.44212   -27.407563 
  805000    316.37113   -34.129301    826.47083    31388.825   -1250.7966    376.27386   -874.52273   -1478.7192    803.58894   -1250.7966            0            0            0            0            0   -575.66634   -26.782239 
  810000    322.95522    47.099127    851.19284     30477.17   -1309.4683    384.10459   -925.36372   -1542.8599    808.74018   -1309.4683            0            0            0            0            0   -575.34864   -27.583369 
  815000    298.69844    23.411155    843.61229    30751.032   -1294.2524    355.25496   -938.99739   -1524.9218    806.23819   -1294.2524            0            0            0            0            0   -575.56876   -27.337718 
  820000    310.50348   -424.03602    831.91984    31183.231   -1285.6552     369.2952   -916.35999   -1511.9039    801.66061   -1285.6552            0            0            0            0            0   -575.41188   -26.958817 
  825000    326.83861   -172.50121    833.29593    31131.736   -1276.9429    388.72328   -888.21966   -1506.1674    804.60325   -1276.9429            0            0            0            0            0   -575.37877    -27.00341 
  830000     296.7569   -200.71422    845.24029    30691.803    -1305.911     352.9458   -952.96521    -1531.766    801.27873    -1305.911            0            0            0            0            0   -575.42371   -27.390474 
  835000     304.3371   -179.98059    844.71487    30710.894   -1302.0197    361.96126    -940.0584   -1526.7071    800.16871   -1302.0197            0            0            0            0            0   -575.48125   -27.373447 
  840000    288.09066   -140.44066    846.71176    30638.465   -1324.2945    342.63866   -981.65583   -1545.7848    797.20392   -1324.2945            0            0            0            0            0   -575.71358   -27.438158 
  845000    301.74112   -242.79734    850.55347     30500.08   -1317.2898    358.87376   -958.41604   -1543.5687    801.30322   -1317.2898            0            0            0            0            0   -575.02429    -27.56265 
  850000    290.87508    74.143702    832.12617    31175.499   -1255.5535     345.9503   -909.60321   -1477.3688    797.36284   -1255.5535            0            0            0            0            0   -575.54752   -26.965504 
  855000    326.76872   -91.458492    842.88126    30777.702    -1292.612    388.64016   -903.97185   -1520.9478    803.77893    -1292.612            0            0            0            0            0   -575.44314   -27.314028 
  860000    310.77872   -33.107894    843.95459     30738.56   -1293.9539    369.62256   -924.33133   -1521.6481    803.42981   -1293.9539            0            0            0            0            0   -575.73564    -27.34881 
  865000    337.10662    6.3651245    848.03346    30590.714   -1310.3622    400.93547    -909.4267    -1537.931    803.07232   -1310.3622            0            0            0            0            0   -575.50345   -27.480988 
  870000    305.54956   -19.609772    841.87436    30814.513   -1289.6726     363.4033   -926.26931   -1512.6876    798.27683   -1289.6726            0            0            0            0            0   -575.26186   -27.281399 
  875000    299.20127    -292.0597    835.98837    31031.471   -1287.2561      355.853   -931.40309   -1515.3898    803.53007   -1287.2561            0            0            0            0            0    -575.3964    -27.09066 
  880000    305.53431   -124.73489    831.24109    31208.694   -1268.3934    363.38515   -905.00829   -1487.4351    794.70997   -1268.3934            0            0            0            0            0   -575.66829   -26.936822 
  885000    325.33057   -44.231145    872.28387     29740.26   -1366.1113     386.9297   -979.18163   -1592.9292    802.17248   -1366.1113            0            0            0            0            0   -575.35463   -28.266836 
  890000    301.20104    362.74162     852.2703     30438.64    -1293.322    358.23141   -935.09055   -1521.2915    803.32112    -1293.322            0            0            0            0            0   -575.35163   -27.618285 
  895000    303.37973   -661.45086    829.46454    31275.536   -1290.1612    360.82262   -929.33854   -1512.1018    797.40702   -1290.1612            0            0            0            0            0   -575.46633   -26.879252 
  900000    320.99445   -229.64278    834.05956    31103.233   -1283.0758    381.77257   -901.30319   -1504.8322     797.1631   -1283.0758            0            0            0            0            0   -575.40669   -27.028156 
  905000    306.53883    -210.1494    832.91779    31145.869   -1273.1464    364.57988   -908.56654   -1499.2574    801.54815   -1273.1464            0            0            0            0            0   -575.43719   -26.991156 
  910000    289.89516    561.03739    856.84265    30276.211   -1302.2356    344.78484   -957.45072   -1534.0952    807.36238   -1302.2356            0            0            0            0            0   -575.50269   -27.766455 
  915000    298.10714   -300.16442      842.419    30794.591   -1301.2474    354.55171   -946.69566   -1529.8557    804.09883   -1301.2474            0            0            0            0            0   -575.49049   -27.299048 
  920000      336.369    55.803555    847.98555    30592.442   -1312.0137    400.05818   -911.95553   -1538.8383    802.23065   -1312.0137            0            0            0            0            0    -575.4061   -27.479436 
  925000    295.75119     -74.3031    833.80843    31112.601   -1277.2723    351.74967   -925.52261   -1499.3814    797.61481   -1277.2723            0            0            0            0            0   -575.50568   -27.020018 
  930000    295.01175    129.38875    850.33976    30507.745   -1307.9878    350.87022   -957.11756   -1533.4442    801.19427   -1307.9878            0            0            0            0            0   -575.73785   -27.555725 
  935000    358.59303   -390.99395    840.05056    30881.414   -1300.2349    426.49018    -873.7447   -1523.5502    798.80292   -1300.2349            0            0            0            0            0    -575.4876   -27.222298 
  940000    300.28903   -324.79839    843.44476     30757.14   -1295.0787    357.14671   -937.93197   -1528.7956    809.28798   -1295.0787            0            0            0            0            0    -575.5711   -27.332289 
  945000    331.27041   -308.49963    846.61473    30641.976   -1320.9826    393.99421   -926.98838   -1547.1577    801.62561   -1320.9826            0            0            0            0            0   -575.45049   -27.435013 
  950000    299.54008   -106.01294    839.43836    30903.935   -1288.9626    356.25596   -932.70663   -1512.9423    799.33542   -1288.9626            0            0            0            0            0   -575.35573   -27.202459 
  955000    333.68921     238.2153    851.78249    30456.072   -1315.5845      396.871   -918.71348   -1541.2185    800.99882   -1315.5845            0            0            0            0            0   -575.36483   -27.602477 
  960000    331.56816   -274.64427    851.09073    30480.826   -1318.5917    394.34834   -924.24337   -1546.6534    803.64755   -1318.5917            0            0            0            0            0   -575.58583   -27.580061 
  965000    305.60486   -286.92845    849.67295    30531.687   -1316.3587    363.46906   -952.88966   -1541.2439    800.42446   -1316.3587            0            0            0            0            0   -575.53925   -27.534116 
  970000    318.36578   -92.373495     834.3046    31094.097   -1281.5504    378.64617   -902.90422   -1502.7572    796.63082   -1281.5504            0            0            0            0            0   -575.42406   -27.036097 
  975000    310.89271    49.705858    844.91668    30703.558   -1290.3278    369.75814   -920.56961   -1519.5067    804.70166   -1290.3278            0            0            0            0            0   -575.52272   -27.379987 
  980000    311.26267    230.12022    852.49535    30430.604   -1311.2985    370.19814   -941.10036   -1539.5605    803.66259   -1311.2985            0            0            0            0            0   -575.40057   -27.625578 
  985000    326.31259    139.95072    838.36551    30943.483   -1269.6059    388.09766   -881.50824   -1501.8075    807.71096   -1269.6059            0            0            0            0            0   -575.50939   -27.167693 
  990000    312.11356   -193.30555    829.46703    31275.443   -1260.6462    371.21014   -889.43603   -1491.7461    806.77731   -1260.6462            0            0            0            0            0   -575.67736   -26.879333 
  995000    301.03309    219.64985    839.29216    30909.318   -1266.7223    358.03166   -908.69063   -1499.6237    808.37742   -1266.7223            0            0            0            0            0   -575.47605   -27.197721 
 1000000    336.29455   -291.00422    832.97755    31143.635   -1277.7868    399.96965   -877.81716   -1511.2387    808.93039   -1277.7868            0            0            0            0            0   -575.47847   -26.993093 
 1005000    312.94336   -15.966537    848.78603     30563.59   -1304.0379    372.19706   -931.84086   -1535.6233    807.01415   -1304.0379            0            0            0            0            0    -575.4288   -27.505376 
 1010000    316.42765   -182.08674     835.2702    31058.152   -1277.2115    376.34107   -900.87038   -1507.3652    805.75545   -1277.2115            0            0            0            0            0   -575.60174   -27.067387 
 1015000    327.29504    329.50602    854.91449    30344.495   -1310.9219    389.26614   -921.65572   -1541.7785    806.44642   -1310.9219            0            0            0            0            0   -575.58975   -27.703972 
 1020000    335.46387    565.80119     856.2478    30297.244   -1304.6538    398.98168   -905.67215   -1527.7665    798.64237   -1304.6538            0            0            0            0            0   -575.52966   -27.747178 
 1025000    305.51924    363.99213    858.20163    30228.268   -1325.8853    363.36723   -962.51805   -1548.9658     798.6459   -1325.8853            0            0            0            0            0   -575.56534   -27.810493 
 1030000    299.43024   -22.581588    839.70122    30894.261    -1285.672    356.12533   -929.54669   -1511.9881    802.06728    -1285.672            0            0            0            0            0   -575.75117   -27.210977 
 1035000    325.33916   -148.62062    826.27109    31396.413   -1262.6382    386.93992   -875.69824   -1488.3417    801.30075   -1262.6382            0            0            0            0            0   -575.59718   -26.775767 
 1040000    329.07895   -212.17275    839.49441    30901.872    -1297.401    391.38781   -906.01322   -1524.5317    802.51315    -1297.401            0            0            0            0            0   -575.38245   -27.204276 
 1045000    310.76662   -33.219819    858.21792    30227.694   -1327.6416    369.60817   -958.03347   -1555.0035    802.82532   -1327.6416            0            0            0            0            0    -575.4635   -27.811021 
 1050000    313.78405    109.72875    848.47996    30574.616   -1310.9395    373.19693   -937.74259   -1535.2913    799.64848   -1310.9395            0            0            0            0            0   -575.29674   -27.495457 
 1055000    329.39893    14.842941    841.49934    30828.246   -1287.1338    391.76838   -895.36543   -1512.1117    800.56042   -1287.1338            0            0            0            0            0   -575.58257   -27.269246 
 1060000    323.20702    519.28264     849.2476    30546.979   -1294.3181    384.40408   -909.91403    -1519.527    800.81024   -1294.3181            0            0            0            0            0   -575.60137   -27.520333 
 1065000    295.56061   -170.83801    829.57009    31271.557   -1282.0367      351.523   -930.51372   -1512.6153    805.90736   -1282.0367            0            0            0            0            0    -575.3288   -26.882673 
 1070000     320.3825    111.99533    837.73343     30966.83   -1269.6765    381.04475   -888.63173   -1503.2781    809.03519   -1269.6765            0            0            0            0            0   -575.43355    -27.14721 
 1075000    315.32918   -7.8226625    849.59402    30534.523   -1317.0176    375.03462   -941.98295   -1538.9231    797.48852   -1317.0176            0            0            0            0            0   -575.58298   -27.531559 
 1080000    316.88428    390.79742     844.5816     30715.74   -1288.3842    376.88417   -911.50008   -1519.8335     806.8477   -1288.3842            0            0            0            0            0   -575.39842   -27.369128 
 1085000    306.33535    289.60597    840.13946    30878.146   -1288.7164    364.33787    -924.3785   -1507.5137    794.34373   -1288.7164            0            0            0            0            0   -575.54644   -27.225179 
 1090000    317.32245    85.154497    848.74987    30564.893   -1325.9691     377.4053   -948.56382   -1542.2179    791.47797   -1325.9691            0            0            0            0            0    -575.2292   -27.504204 
 1095000    321.22663    15.999771    838.16428    30950.912   -1289.4431    382.04871   -907.39435   -1517.4805    803.22829   -1289.4431            0            0            0            0            0   -575.19085   -27.161172 
 1100000    316.75514    158.40246    841.00595    30846.332   -1291.7357    376.73058   -915.00512   -1518.4611    802.18445   -1291.7357            0            0            0            0            0   -575.45909   -27.253258 
 1105000    324.96375   -175.35229    844.67004    30712.524   -1308.4391    386.49343    -921.9457   -1531.8258    798.64832   -1308.4391            0            0            0            0            0   -575.26161   -27.371995 
 1110000    295.66042   -389.43382    848.69899    30566.725   -1327.4125    351.64171   -975.77076   -1544.1679    792.15915   -1327.4125            0            0            0            0            0   -575.40376   -27.502555 
 1115000      290.268    89.892598    829.04007     31291.55   -1254.8233    345.22828     -909.595   -1478.4759    799.04332   -1254.8233            0            0            0            0            0   -575.39074   -26.865497 
 1120000    298.73037     281.6442     850.6408    30496.949    -1306.304    355.29294   -951.01106   -1530.4441    799.76498    -1306.304            0            0            0            0            0   -575.62487    -27.56548 
 1125000    337.28473   -191.99474    848.82365    30562.236   -1322.3269     401.1473   -921.17962    -1552.948    805.94817   -1322.3269            0            0            0            0            0   -575.32709   -27.506594 
 1130000    310.94989   -519.23481    838.58196    30935.496   -1308.0066    369.82614   -938.18046   -1539.2085    806.74804   -1308.0066            0            0            0            0            0   -575.54612   -27.174707 
 1135000    341.76146    582.41988    847.31588     30616.62   -1279.0149    406.47167   -872.54323   -1513.6684    810.02489   -1279.0149            0            0            0            0            0   -575.37135   -27.457735 
 1140000    306.17127    244.92195    842.92514      30776.1   -1289.3903    364.14272   -925.24757   -1513.6323    799.59985   -1289.3903            0            0            0            0            0   -575.35786    -27.31545 
 1145000    339.78188   -338.97153    848.43169    30576.355   -1328.0348    404.11727   -923.91751   -1553.0217    800.42111   -1328.0348            0            0            0            0            0   -575.43424   -27.493893 
 1150000    319.30439    211.78924    856.36923    30292.948   -1331.4899    379.76251   -951.72743   -1552.6162    796.64646   -1331.4899            0            0            0            0            0   -575.52025   -27.751113 
 1155000    329.93324    362.53219    858.09108    30232.162   -1310.0561    392.40386   -917.65227   -1541.9897     807.3474   -1310.0561            0            0            0            0            0   -575.41385   -27.806911 
 1160000    298.68437   -391.11265    833.27043    31132.688   -1286.0486    355.23822   -930.81033    -1508.516    797.91252   -1286.0486            0            0            0            0            0   -575.44505   -27.002584 
 1165000    324.34089   -72.190721     827.3178    31356.691   -1248.2206    385.75264   -862.46793   -1485.2843    812.70361   -1248.2206            0            0            0            0            0   -575.63987   -26.809686 
 1170000    312.10346   -28.347152    849.08144    30552.957   -1306.4576    371.19814   -935.25946   -1534.4507    803.38949   -1306.4576            0            0            0            0            0   -575.39636   -27.514949 
 1175000    330.56432    133.64899    851.62898    30461.562   -1311.2494    393.15443   -918.09498   -1540.2656    804.47597   -1311.2494            0            0            0            0            0   -575.45977   -27.597503 
 1180000    308.46424    579.81732    870.42527    29803.763   -1352.2906    366.86985    -985.4207   -1571.3929    794.32928   -1352.2906            0            0            0            0            0   -575.22696   -28.206607 
 1185000    317.56492   -392.37446    824.13392    31477.831   -1260.9428    377.69368   -883.24915   -1485.5786    800.10266   -1260.9428            0            0            0            0            0   -575.46692   -26.706511 
 1190000    298.32597   -125.41459    835.32402    31056.151   -1285.3601    354.81197   -930.54809   -1514.0221    804.05504   -1285.3601            0            0            0            0            0   -575.39303   -27.069132 
 1195000     314.3533     -68.7184     836.6297    31007.683   -1279.5708    373.87396   -905.69686    -1507.331    803.07552   -1279.5708            0            0            0            0            0   -575.31529   -27.111443 
 1200000    309.43594   -124.89862    835.09399    31064.705   -1277.8267    368.02554   -909.80118   -1508.3049    806.06575   -1277.8267            0            0            0            0            0   -575.58754   -27.061677 
 1205000    308.57264   -46.801353    829.89526    31259.304   -1247.3235    366.99877   -880.32474   -1477.0853    805.37737   -1247.3235            0            0            0            0            0   -575.61556    -26.89321 
 1210000    313.78043    222.91962    845.36919    30687.123   -1300.1656    373.19263   -926.97299    -1526.214    801.38411   -1300.1656            0            0            0            0            0   -575.33571   -27.394651 
 1215000    318.68044    224.06771    868.17227    29881.107   -1352.8943    379.02042    -973.8739   -1577.4664    800.16604   -1352.8943            0            0            0            0            0   -575.59392   -28.133597 
 1220000    294.82821    235.71095    837.28218     30983.52   -1256.3648    350.65193   -905.71284   -1490.7815    809.88371   -1256.3648            0            0            0            0            0     -575.467   -27.132587 
 1225000    315.89572    -110.3915    841.65755    30822.451   -1295.4268    375.70843   -919.71839   -1521.5858    801.55836   -1295.4268            0            0            0            0            0   -575.39934   -27.274373 
 1230000    319.21919    68.090309    842.00847    30809.605   -1277.0184    379.66118   -897.35719   -1517.5485    816.07765   -1277.0184            0            0            0            0            0   -575.54752   -27.285745 
 1235000    332.74198   -312.10503    843.62985    30750.392   -1307.6509    395.74442   -911.90651   -1529.6973    797.67435   -1307.6509            0            0            0            0            0   -575.62798   -27.338287 
 1240000    344.39721     51.06544    845.06223     30698.27    -1298.584    409.60648   -888.97754   -1523.6508    800.70893    -1298.584            0            0            0            0            0   -575.64215   -27.384704 
 1245000    326.90077   -507.56816    848.79544    30563.252   -1315.8574    388.79721   -927.06023   -1549.0061    808.57517   -1315.8574            0            0            0            0            0   -575.42654    -27.50568 
 1250000    314.07872    164.96546    855.80082    30313.068   -1326.4576    373.54739   -952.91019   -1550.5976    799.70927   -1326.4576            0            0            0            0            0   -575.56927   -27.732694 
 1255000    314.00129    183.29531    852.51307    30429.972   -1315.7765    373.45531    -942.3212    -1540.564    800.30963   -1315.7765            0            0            0            0            0    -575.5221   -27.626152 
 1260000    301.07815    280.49489    848.62056     30569.55   -1299.4714    358.08525   -941.38613    -1531.509    807.55311   -1299.4714            0            0            0            0            0   -575.51552   -27.500013 
 1265000    307.36893   -246.15853    860.25021    30156.283   -1352.7299    365.56715   -987.16277   -1570.5338    793.43857   -1352.7299            0            0            0            0            0   -575.63471   -27.876879 
 1270000    323.76345    176.56682    853.17991    30406.188   -1321.0005    385.06586    -935.9346   -1546.1335    800.35995   -1321.0005            0            0            0            0            0   -575.22694   -27.647762 
 1275000    312.32989   -277.90818    840.02297    30882.428   -1289.1943    371.46744   -917.72689   -1513.0937    799.58847   -1289.1943            0            0            0            0            0   -575.68914   -27.221404 
 1280000    326.46712    -390.7979    843.64192    30749.952   -1306.3576    388.28146   -918.07613   -1532.1054    801.31878   -1306.3576            0            0            0            0            0   -575.57093   -27.338678 
 1285000      318.319   -165.18478    843.01206    30772.927   -1291.4733    378.59054   -912.88271   -1516.0144    800.01949   -1291.4733            0            0            0            0            0    -575.4783   -27.318267 
 1290000    310.02844    3.0351304    851.76714    30456.621   -1313.6662    368.73022   -944.93601   -1537.7197    799.49007   -1313.6662            0            0            0            0            0   -575.43659    -27.60198 
 1295000    314.04651    38.214244    860.81666    30136.439   -1340.3095    373.50908   -966.80044   -1564.0281    799.24937   -1340.3095            0            0            0            0            0   -575.53077   -27.895234 
 1300000     319.2585    456.77607    833.53241    31122.903    -1256.561    379.70793   -876.85311   -1483.8495    802.73196    -1256.561            0            0            0            0            0   -575.44349   -27.011074 
 1305000    324.64961   -6.2049727    837.36555    30980.435   -1285.8749     386.1198   -899.75505   -1509.8535    799.57995   -1285.8749            0            0            0            0            0   -575.60131   -27.135289 
 1310000    321.93909    121.08584    849.21001    30548.331   -1313.1534    382.89607   -930.25731   -1536.0244    798.38023   -1313.1534            0            0            0            0            0   -575.50919   -27.519115 
 1315000       313.76     354.8428    828.31759    31318.843   -1242.9481    373.16833   -869.77976   -1473.3204    806.03345   -1242.9481            0            0            0            0            0   -575.66119   -26.842085 
 1320000    309.34881    63.459843    844.38518    30722.885   -1309.9304     367.9219   -942.00846   -1534.1502    799.70135   -1309.9304            0            0            0            0            0   -575.48151   -27.362764 
 1325000     315.3506   -101.61471    837.33821    30981.446   -1289.1869    375.06009    -914.1268   -1517.6978    803.96251   -1289.1869            0            0            0            0            0   -575.45164   -27.134403 
 1330000    303.99237    158.43846    847.56594    30607.587   -1297.4077    361.55126   -935.85645   -1519.1643    797.23346   -1297.4077            0            0            0            0            0   -575.47687   -27.465838 
 1335000    329.15049    103.48698    847.81214    30598.699   -1304.4248     391.4729   -912.95195   -1532.7952    803.87717   -1304.4248            0            0            0            0            0   -575.50679   -27.473816 
 1340000     290.9602   -349.10418     832.8516    31148.345   -1279.8586    346.05153    -933.8071   -1508.2657    803.87858   -1279.8586            0            0            0            0            0   -575.47148   -26.989011 
 1345000    297.26991   -1.6994303    819.68878    31648.534    -1241.136    353.55595   -887.58006   -1471.0152    805.28111    -1241.136            0            0            0            0            0   -575.40197   -26.562463 
 1350000    310.74648   -222.77836    827.13315    31363.691   -1260.0092    369.58422     -890.425   -1489.7204    805.23444   -1260.0092            0            0            0            0            0   -575.52325   -26.803702 
 1355000    310.61817    263.49752    834.19444    31098.204   -1260.6871    369.43161   -891.25551   -1492.9937    807.84666   -1260.6871            0            0            0            0            0   -575.54004   -27.032527 
 1360000    322.67462    233.10559    848.94721    30557.788   -1297.5731    383.77087   -913.80227   -1521.1283     799.2449   -1297.5731            0            0            0            0            0   -575.68972   -27.510599 
 1365000     309.9571    189.59086    863.89186    30029.162   -1334.3014    368.64537   -965.65606   -1566.0378    807.08424   -1334.3014            0            0            0            0            0   -575.34782   -27.994888 
 1370000    318.93956    208.13043    854.88915    30345.395   -1315.1866     379.3286   -935.85804   -1540.2368    800.81518   -1315.1866            0            0            0            0            0   -575.76497    -27.70315 
 1375000    303.21166   -589.75816    840.43277    30867.369   -1311.2204    360.62273   -950.59764   -1540.9743    805.13239   -1311.2204            0            0            0            0            0   -575.37847   -27.234684 
 1380000     291.3361   -306.76929    832.63066     31156.61   -1275.7632    346.49862   -929.26455   -1505.1664     805.0027   -1275.7632            0            0            0            0            0   -575.59951   -26.981852 
 1385000    309.76944   -193.88878    842.21181    30802.167   -1296.0453    368.42218   -927.62317   -1520.4528    799.63076   -1296.0453            0            0            0            0            0   -575.22335   -27.292334 
 1390000    306.90796   -42.133024    841.76444    30818.537    -1288.935     365.0189   -923.91613   -1520.6889    807.26267    -1288.935            0            0            0            0            0   -575.50881   -27.277837 
 1395000    311.29396   -254.79912    831.36078    31204.201   -1264.0972    370.23535   -893.86184   -1491.8676    803.09862   -1264.0972            0            0            0            0            0   -575.32823   -26.940701 
 1400000    308.52567    132.00578    843.97769    30737.719   -1299.1206    366.94291   -932.17768   -1518.4518    794.84767   -1299.1206            0            0            0            0            0   -575.51642   -27.349558 
 1405000    314.54449    491.60963    835.80888    31038.135   -1256.1247    374.10136   -882.02331   -1488.7063    808.08155   -1256.1247            0            0            0            0            0   -575.49996   -27.084844 
 1410000     318.5145    665.11966    847.11125    30624.016    -1274.225    378.82306   -895.40189   -1505.4898    806.80809    -1274.225            0            0            0            0            0   -575.54321   -27.451103 
 1415000    324.49439   -334.45318    852.57286    30427.838   -1332.7024     385.9352   -946.76716    -1563.942    806.81329   -1332.7024            0            0            0            0            0   -575.57365    -27.62809 
 1420000    318.84395    381.67171    825.68419     31418.73   -1238.6276    379.21488   -859.41275   -1465.5607    802.53516   -1238.6276            0            0            0            0            0   -575.60212   -26.756748 
 1425000    325.82237    467.21088    846.87556    30632.539    -1291.774    387.51463   -904.25934   -1515.6686     799.3194    -1291.774            0            0            0            0            0    -575.4248   -27.443466 
 1430000     326.5695    208.89101    847.29453    30617.392   -1287.2024    388.40322   -898.79913   -1516.1405    804.30509   -1287.2024            0            0            0            0            0   -575.36691   -27.457043 
 1435000    316.02425    195.15493    848.52012    30573.168   -1297.2922    375.86129   -921.43094    -1520.723    799.05988   -1297.2922            0            0            0            0            0   -575.62911   -27.496759 
 1440000    330.93847   -460.51598     836.9615     30995.39   -1292.5376    393.59942   -898.93817   -1522.2721    805.18368   -1292.5376            0            0            0            0            0   -575.44916   -27.122195 
 1445000    314.15701    98.137293    837.93248    30959.474   -1283.5913     373.6405   -909.95076   -1505.4047    797.32089   -1283.5913            0            0            0            0            0   -575.50747    -27.15366 
 1450000    318.76273    446.56761     850.6273    30497.433   -1294.1713    379.11829   -915.05298   -1517.0417    798.00685   -1294.1713            0            0            0            0            0   -575.13638   -27.565043 
 1455000    289.52409   -251.84189    838.03194    30955.799   -1289.1655    344.34351   -944.82194   -1515.3558    801.49139   -1289.1655            0            0            0            0            0   -575.30099   -27.156883 
 1460000    328.80814   -420.64974    839.77012    30891.726   -1296.7552    391.06573   -905.68949   -1529.1078    807.78031   -1296.7552            0            0            0            0            0   -575.42769    -27.21321 
 1465000    329.03484   -368.30119    831.98423    31180.818    -1273.223    391.33535   -881.88764    -1505.525    807.66078    -1273.223            0            0            0            0            0   -575.35878   -26.960904 
 1470000    323.87782   -106.86928    844.55309    30716.777   -1286.2565    385.20189   -901.05458   -1524.3154    813.32495   -1286.2565            0            0            0            0            0   -575.26603   -27.368205 
 1475000    294.78699    50.327406    850.77797    30492.032   -1302.8907    350.60291    -952.2878   -1529.5788    802.13664   -1302.8907            0            0            0            0            0   -575.44855   -27.569925 
 1480000    354.76011   -114.09439    858.00535    30235.183    -1348.518    421.93153   -926.58644   -1573.9022    800.87176    -1348.518            0            0            0            0            0   -575.48749   -27.804133 
 1485000    322.70592    224.34128    847.57816    30607.146      -1292.5     383.8081   -908.69186   -1521.8229    804.51129      -1292.5            0            0            0            0            0    -575.1884   -27.466234 
 1490000    317.77886   -50.666751    850.15822    30514.259   -1313.1803    377.94813   -935.23219   -1543.3669    805.74227   -1313.1803            0            0            0            0            0   -575.55568   -27.549842 
 1495000    304.78281    187.41416    852.31365    30437.091     -1305.78    362.49137   -943.28867   -1534.4506    803.86594     -1305.78            0            0            0            0            0   -575.19543    -27.61969 
 1500000    325.37221    23.417879    857.58618    30249.961   -1327.5526    386.97923   -940.57339   -1554.2676    801.87381   -1327.5526            0            0            0            0            0   -575.15879   -27.790549 
 1505000    305.44817    85.624027    839.18114    30913.408   -1276.0375    363.28271   -912.75483   -1501.7996    801.34947   -1276.0375            0            0            0            0            0   -575.58744   -27.194124 
 1510000    313.72483     517.2027     835.7036    31042.045   -1253.7689     373.1265   -880.64243   -1482.1812    803.83455   -1253.7689            0            0            0            0            0   -575.42231   -27.081432 
 1515000    318.86026    11.887566    839.95991    30884.746   -1272.6655    379.23428   -893.43123   -1505.3727    808.39661   -1272.6655            0            0            0            0            0   -575.68945    -27.21936 
 1520000    301.67718   -168.25449    842.84048    30779.192   -1295.7877     358.7977   -936.98999   -1518.9402    798.58861   -1295.7877            0            0            0            0            0   -575.43612   -27.312707 
 1525000    319.57709   -30.215368    833.80734    31112.641    -1266.817    380.08684   -886.73013   -1495.7934    804.32581    -1266.817            0            0            0            0            0   -575.34942   -27.019983 
 1530000    295.05643   -179.18755    844.70292    30711.328   -1311.9142    350.92336   -960.99086   -1534.1423    797.60545   -1311.9142            0            0            0            0            0   -575.37733    -27.37306 
 1535000    312.80391   -309.44039     851.0309    30482.969   -1331.1195    372.03121   -959.08825   -1552.7171    797.22838   -1331.1195            0            0            0            0            0   -575.63073   -27.578122 
 1540000    315.70358   -448.20711    842.86596    30778.261   -1307.4487    375.47991   -931.96878    -1538.238    806.35485   -1307.4487            0            0            0            0            0   -575.56552   -27.313533 
 1545000    324.55342   -206.39016    849.63746    30532.962   -1315.3063     386.0054   -929.30091   -1542.7563    802.68941   -1315.3063            0            0            0            0            0   -575.23937   -27.532967 
 1550000    310.15613   -246.01536    846.15723    30658.544   -1313.1055    368.88208   -944.22337   -1544.0367    806.21451   -1313.1055            0            0            0            0            0   -575.28323   -27.420188 
 1555000    310.62921    190.73808    849.76022    30528.552   -1300.8811    369.44475   -931.43638   -1526.2446    800.76741   -1300.8811            0            0            0            0            0   -575.40392   -27.536945 
 1560000    303.99672   -29.454527    839.10024    30916.388   -1276.7731    361.55643   -915.21669   -1509.2493    807.94257   -1276.7731            0            0            0            0            0   -575.46643   -27.191502 
 1565000    309.91951    317.54087    852.42581    30433.087   -1305.0787    368.60067   -936.47801   -1533.2746    803.56859   -1305.0787            0            0            0            0            0   -575.37266   -27.623325 
 1570000    293.95469   -259.02217    839.90174    30886.885   -1299.1464    349.61301   -949.53337   -1528.3217      804.576   -1299.1464            0            0            0            0            0   -575.40065   -27.217475 
 1575000     311.7294    57.166957      844.236    30728.314   -1298.5248    370.75324   -927.77152   -1524.4818     801.4426   -1298.5248            0            0            0            0            0   -575.48557   -27.357929 
 1580000    293.69901   -394.57069    832.83176    31149.087    -1282.254    349.30893   -932.94503   -1506.5387    799.65657    -1282.254            0            0            0            0            0    -575.3718   -26.988369 
 1585000    301.93664   -25.324076    846.49321    30646.375   -1295.3117    359.10629   -936.20541   -1526.4556    806.68278   -1295.3117            0            0            0            0            0    -575.5389   -27.431075 
 1590000    307.12323   -638.90806    836.22126    31022.828   -1293.9193    365.27493   -928.64439   -1522.9029    804.65489   -1293.9193            0            0            0            0            0   -575.67135   -27.098207 
 1595000    313.37247    16.880865    832.44327    31163.623   -1267.1195    372.70741   -894.41204   -1492.0593    800.59753   -1267.1195            0            0            0            0            0   -575.65769    -26.97578 
[...]
 4600000    322.51272    -399.9218     844.1074    30732.995   -1321.8668    383.57831   -938.28847   -1542.9641     796.5113   -1321.8668            0            0            0            0            0     -575.414   -27.353762 
 4605000     322.7775    -104.6208     841.0187    30845.864   -1289.1264    383.89323   -905.23312   -1518.6287    804.80603   -1289.1264            0            0            0            0            0   -575.30364   -27.253671 
 4610000    324.28293    -437.5204    849.44668     30539.82   -1326.2443     385.6837   -940.56061   -1556.6965    805.85532   -1326.2443            0            0            0            0            0   -575.40308   -27.526784 
 4615000    296.61395   -146.25103    841.69767    30820.982   -1297.9741    352.77579   -945.19834   -1523.8858    801.38202   -1297.9741            0            0            0            0            0    -575.4703   -27.275673 
 4620000    335.31362   -187.94501    850.92958    30486.599   -1315.1681    398.80298    -916.3651   -1545.9729    806.26123   -1315.1681            0            0            0            0            0   -575.45637   -27.574838 
 4625000    334.90444    122.81855    847.18598    30621.315   -1319.3568    398.31632    -921.0405   -1542.9799    799.19454   -1319.3568            0            0            0            0            0   -575.57145   -27.453525 
 4630000    335.16145    105.22644    848.03434    30590.682    -1292.632    398.62199   -894.00999   -1523.9065    806.81989    -1292.632            0            0            0            0            0   -575.54534   -27.481016 
 4635000    294.52126   -382.61539    850.57819    30499.193   -1326.0665    350.28686    -975.7796   -1548.4699    797.91956   -1326.0665            0            0            0            0            0   -575.51611   -27.563451 
 4640000    326.20954    105.40146     846.3781    30650.543   -1300.4112     387.9751    -912.4361   -1521.6367    796.60847   -1300.4112            0            0            0            0            0   -575.38295   -27.427345 
 4645000    302.30624     257.8603    846.90361    30631.525   -1301.1272    359.54588   -941.58132   -1524.6354    798.99031   -1301.1272            0            0            0            0            0   -575.48208   -27.444375 
 4650000    323.81614    288.48195    837.73804     30966.66   -1264.0347    385.12853   -878.90621    -1489.457    800.77893   -1264.0347            0            0            0            0            0   -575.35666   -27.147359 
 4655000     305.5562   -62.531048      837.049    30992.151   -1273.2924    363.41119   -909.88117   -1498.6171    800.84868   -1273.2924            0            0            0            0            0   -575.52396    -27.12503 
 4660000    313.55173    415.22895    846.33331    30652.165   -1282.4811    372.92063   -909.56051   -1515.4549    808.56368   -1282.4811            0            0            0            0            0   -575.58994   -27.425894 
 4665000    314.84544   -310.07165    849.57787    30535.104   -1312.3087    374.45928   -937.84938   -1548.2937    811.49373   -1312.3087            0            0            0            0            0   -575.50865   -27.531036 
 4670000    300.34723    279.32303    851.34549    30471.705   -1302.5287    357.21593   -945.31272   -1529.4721    802.28585   -1302.5287            0            0            0            0            0   -575.34241   -27.588316 
 4675000    320.65252    79.892596    840.11555    30879.025   -1291.7057     381.3659   -910.33979    -1511.413    795.30191   -1291.7057            0            0            0            0            0   -575.59456   -27.224404 
 4680000    300.19036   -168.66795    856.99812    30270.718   -1340.4387    357.02936   -983.40935   -1562.4626    797.48072   -1340.4387            0            0            0            0            0   -575.45685   -27.771493 
 4685000    325.91428     -185.297    854.27897    30367.069   -1326.6202    387.62393    -938.9963   -1551.8753    800.63016   -1326.6202            0            0            0            0            0   -575.37509   -27.683377 
 4690000    315.16323    120.04039    859.03745    30198.856   -1324.3553    374.83724   -949.51803   -1556.8665    808.15232   -1324.3553            0            0            0            0            0   -575.64104   -27.837578 
 4695000    297.07213    179.95928    835.03893    31066.753   -1256.8942    353.32072   -903.57349   -1492.8355     811.3354   -1256.8942            0            0            0            0            0   -575.39414   -27.059893 
 4700000     287.6527   -325.87584      844.613    30714.598   -1319.0868    342.11779   -976.96898   -1541.1163     797.5684   -1319.0868            0            0            0            0            0   -575.53885   -27.370146 
 4705000    338.36783    176.82657    852.30677    30437.337   -1310.3611    402.43548   -907.92566    -1538.935    804.14105   -1310.3611            0            0            0            0            0   -575.56722   -27.619467 
 4710000    304.60003   -58.225864    847.07317    30625.393   -1302.2108    362.27397   -939.93678    -1533.386     806.6376   -1302.2108            0            0            0            0            0   -575.46235   -27.449869 
 4715000    291.95316   -263.96519    839.19321    30912.963   -1288.7499    347.23251   -941.51739   -1521.3997    808.22675   -1288.7499            0            0            0            0            0   -575.57699   -27.194515 
 4720000    302.71933     403.6308    852.28248    30438.205   -1303.3017    360.03718   -943.26453    -1527.483     799.7628   -1303.3017            0            0            0            0            0    -575.5815    -27.61868 
 4725000    319.98047    139.19199    854.31876    30365.655   -1320.3412    380.56659   -939.77463   -1545.2123    800.30517   -1320.3412            0            0            0            0            0   -575.43413   -27.684666 
 4730000    340.71614    29.673714    860.46266    30148.837   -1332.4674    405.22843   -927.23893   -1560.0948    803.20757   -1332.4674            0            0            0            0            0   -575.58017   -27.883763 
 4735000    309.95895    58.284109    838.71832    30930.466    -1272.425    368.64757   -903.77744   -1505.5519    808.60562    -1272.425            0            0            0            0            0   -575.47878   -27.179126 
 4740000    312.44047    495.34149    838.09869    30953.334   -1267.4372    371.59896   -895.83825   -1492.5973    800.78569   -1267.4372            0            0            0            0            0   -575.62559   -27.159047 
 4745000    333.72957   -7.3974473    843.59257    30751.751   -1301.7684    396.91899    -904.8494   -1524.2107    797.99516   -1301.7684            0            0            0            0            0   -575.55288   -27.337079 
 4750000     318.0523    172.33438    839.01249    30919.622   -1272.5916    378.27334   -894.31826   -1507.1057    809.82398   -1272.5916            0            0            0            0            0   -575.30992   -27.188658 
 4755000    318.40316    222.21412    838.72165    30930.343   -1264.1115    378.69064   -885.42089   -1497.7475    809.22022   -1264.1115            0            0            0            0            0   -575.58423   -27.179234 
 4760000    305.93415   -289.31129    824.49812    31463.927   -1248.5691    363.86071   -884.70842   -1481.5304    808.53918   -1248.5691            0            0            0            0            0   -575.57787   -26.718313 
 4765000     308.1712   -355.38117    838.26424    30947.221   -1293.5276    366.52133   -927.00629   -1525.6221    807.56057   -1293.5276            0            0            0            0            0   -575.46607   -27.164411 
 4770000    299.87152    222.98644    849.46738    30539.076    -1299.512    356.65015   -942.86186   -1525.0607    800.95349    -1299.512            0            0            0            0            0   -575.40478   -27.527455 
 4775000    285.58919   -172.93581    846.15243    30658.718   -1314.1494    339.66357   -974.48587   -1533.8218    795.19424   -1314.1494            0            0            0            0            0   -575.52191   -27.420032 
 4780000    310.30483   -8.3430276    843.67138    30748.878   -1282.6816    369.05894   -913.62263   -1513.8879    806.79014   -1282.6816            0            0            0            0            0   -575.58382   -27.339633 
 4785000    320.14331   -300.73389    847.63379    30605.137   -1301.4494    380.76027   -920.68912   -1532.4335    806.25143   -1301.4494            0            0            0            0            0   -575.26736   -27.468037 
 4790000    309.17615    -94.02023    854.81768    30347.932   -1319.9293    367.71655   -952.21274   -1551.7826     807.0791   -1319.9293            0            0            0            0            0   -575.22583   -27.700834 
 4795000    319.25778    152.65258    847.42497    30612.679     -1295.12    379.70707   -915.41297   -1527.2148    807.62308     -1295.12            0            0            0            0            0   -575.52828    -27.46127 
 4800000    317.84906    396.50814    853.51741    30394.165   -1312.2563    378.03162   -934.22469   -1533.1692    796.49372   -1312.2563            0            0            0            0            0   -575.58082   -27.658698 
 4805000    309.21412    296.68461    845.94666    30666.175   -1297.7758    367.76172   -930.01409    -1512.757    790.59098   -1297.7758            0            0            0            0            0    -575.6098   -27.413364 
 4810000    313.11353    162.46481    836.26102    31021.354   -1266.1698    372.39945   -893.77033   -1491.3992    800.67141   -1266.1698            0            0            0            0            0   -575.44202   -27.099496 
 4815000    308.46188    244.76684     849.1063    30552.062   -1296.6827    366.86705   -929.81561   -1526.1166    804.81473   -1296.6827            0            0            0            0            0   -575.38079   -27.515754 
 4820000    322.63633   -84.871832    850.96976    30485.159   -1310.6916    383.72532   -926.96628   -1542.0525    806.76098   -1310.6916            0            0            0            0            0    -575.4001   -27.576141 
 4825000    324.45902   -12.002091    845.59004    30679.109   -1307.8746    385.89313   -921.98151   -1534.2776    801.97295   -1307.8746            0            0            0            0            0   -575.56996   -27.401808 
 4830000    330.93184    -159.3066    845.74071    30673.643   -1313.3886    393.59154   -919.79704   -1539.5775     801.8765   -1313.3886            0            0            0            0            0   -575.68762    -27.40669 
 4835000    307.96455    197.44364     847.9667    30593.122   -1295.8205    366.27555   -929.54494   -1522.7824    802.56411   -1295.8205            0            0            0            0            0   -575.60221   -27.478825 
 4840000    291.46589   -199.27908    853.21887    30404.799   -1323.5343    346.65298   -976.88131   -1543.8232    795.90021   -1323.5343            0            0            0            0            0   -575.61133   -27.649024 
 4845000    298.68355    272.04995    847.14879    30622.659   -1301.0274    355.23725    -945.7902   -1524.8681    799.40068   -1301.0274            0            0            0            0            0   -575.56004    -27.45232 
 4850000    314.75522    667.66678    852.05574    30446.305   -1297.9279    374.35198   -923.57594   -1517.2431     794.8028   -1297.9279            0            0            0            0            0   -575.48758   -27.611332 
 4855000    312.64468   -24.727798    839.91988    30886.218    -1283.954    371.84183   -912.11218   -1508.3493    799.77593    -1283.954            0            0            0            0            0   -575.38062   -27.218063 
 4860000    301.29084   -201.47288    828.95746    31294.668   -1270.3668    358.33822   -912.02854   -1494.5575    799.59521   -1270.3668            0            0            0            0            0   -575.40444    -26.86282 
 4865000    314.51089    507.99945    857.91531    30238.356   -1321.5525    374.06139   -947.49111   -1540.9418    794.93823   -1321.5525            0            0            0            0            0   -575.54891   -27.801215 
 4870000     310.1143   -316.74641    830.06964    31252.738   -1265.8049    368.83234   -896.97256   -1503.6151    813.35884   -1265.8049            0            0            0            0            0   -575.54868   -26.898861 
 4875000    338.05898    608.61893    856.57251    30285.759   -1308.6732    402.06815   -906.60502    -1539.303    806.21655   -1308.6732            0            0            0            0            0   -575.58667   -27.757701 
 4880000    313.92192   -331.32445    837.67372    30969.037   -1285.5959     373.3609   -912.23498   -1514.0285    803.90699   -1285.5959            0            0            0            0            0   -575.47437   -27.145275 
 4885000    288.85444    130.48682    855.29628     30330.95   -1308.6451    343.54707   -965.09808   -1541.3348    808.20996   -1308.6451            0            0            0            0            0   -575.52034   -27.716344 
 4890000     316.8257   -199.54776    827.91271    31334.159   -1255.3199     376.8145   -878.50536   -1489.4532    809.45755   -1255.3199            0            0            0            0            0   -575.32424   -26.828964 
 4895000    310.65195   -190.57333     852.8752    30417.051   -1320.5404    369.47178    -951.0686   -1545.5009    800.40833   -1320.5404            0            0            0            0            0   -575.44777   -27.637887 
 4900000    327.98214   -440.79345     848.4539    30575.555   -1332.0326    390.08333   -941.94928   -1556.6943    799.97074   -1332.0326            0            0            0            0            0   -575.30904   -27.494613 
 4905000    282.08545    25.480165    846.73527    30637.614   -1303.6225    335.49641   -968.12608   -1523.5407    795.55432   -1303.6225            0            0            0            0            0   -575.63615    -27.43892 
 4910000    304.03981    300.35131    854.28228    30366.952   -1304.1251    361.60769   -942.51742   -1531.6035    802.67439   -1304.1251            0            0            0            0            0   -575.19601   -27.683484 
 4915000    311.98145    152.52993    853.93924    30379.151   -1304.4885    371.05302   -933.43549    -1532.261    803.28907   -1304.4885            0            0            0            0            0   -575.51657   -27.672368 
 4920000    326.52464    59.254014    858.35231    30222.961   -1333.5897    388.34986   -945.23986    -1557.997    800.07494   -1333.5897            0            0            0            0            0   -575.66765   -27.815376 
 4925000    308.92739    8.8605442    853.92493     30379.66   -1316.3104    367.42069   -948.88966   -1546.3006    805.33397   -1316.3104            0            0            0            0            0   -575.34374   -27.671904 
 4930000    315.47214    702.93356    852.60331    30426.751    -1284.621    375.20465   -909.41638   -1519.5373    810.30973    -1284.621            0            0            0            0            0   -575.39348   -27.629076 
 4935000    304.56286     440.6066    869.94009    29820.385   -1351.4842    362.22977   -989.25441    -1574.771    798.68896   -1351.4842            0            0            0            0            0   -575.40213   -28.190884 
 4940000     323.5556    452.53961    845.66581     30676.36   -1287.7843    384.81866   -902.96568   -1513.4993    801.23954   -1287.7843            0            0            0            0            0   -575.52454   -27.404263 
 4945000    314.21558   -459.81391    825.50318    31425.619   -1266.7667    373.71017   -893.05649    -1495.437    804.17487   -1266.7667            0            0            0            0            0   -575.50454   -26.750882 
 4950000    315.39519     49.92101    852.87616    30417.017   -1321.4404    375.11313   -946.32725   -1546.8948     800.9019   -1321.4404            0            0            0            0            0   -575.44746   -27.637918 
 4955000    316.37927    87.475301     852.0295    30447.242   -1321.0919    376.28354   -944.80835   -1548.7619    803.16316   -1321.0919            0            0            0            0            0   -575.49319   -27.610482 
 4960000    311.82493   -25.705349    849.11939    30551.591   -1323.0594    370.86686   -952.19254   -1540.1375    792.75472   -1323.0594            0            0            0            0            0   -575.67658   -27.516178 
 4965000    301.02321    541.96629     857.6626    30247.266   -1324.4466    358.01991   -966.42665   -1544.9097    795.93463   -1324.4466            0            0            0            0            0   -575.47149   -27.793026 
 4970000    308.48649    655.70873    861.55869    30110.483   -1304.3723    366.89631   -937.47601   -1544.8475    815.64965   -1304.3723            0            0            0            0            0   -575.17447    -27.91928 
 4975000    301.74859    80.727464    842.05987    30807.725   -1282.4644    358.88264   -923.58181   -1513.5518    806.47949   -1282.4644            0            0            0            0            0    -575.3921   -27.287411 
 4980000    296.52651    396.33973    842.90157    30776.961     -1289.06    352.67179   -936.38822   -1516.3697    802.85572     -1289.06            0            0            0            0            0   -575.54598   -27.314687 
 4985000    305.74942    8.6788598    817.76289    31723.069   -1223.3304      363.641   -859.68943    -1453.499    805.78602   -1223.3304            0            0            0            0            0   -575.61744   -26.500054 
 4990000    314.40742     294.8468    868.87997    29856.769   -1340.7693    373.93833   -966.83098   -1566.1889    800.92674   -1340.7693            0            0            0            0            0   -575.50713   -28.156531 
 4995000    317.49352    59.394162    859.81969    30171.382   -1344.0755    377.60876   -966.46675   -1565.3979    796.86199   -1344.0755            0            0            0            0            0   -575.53961   -27.862927 
 5000000    345.79734      547.951    862.72286    30069.852    -1316.174    411.27172   -904.90229   -1546.5727    805.86562    -1316.174            0            0            0            0            0   -575.46691   -27.957006 
Loop time of 236624 on 1 procs for 5000000 steps with 2400 atoms

Performance: 1.826 ns/day, 13.146 hours/ns, 21.131 timesteps/s
100.0% CPU use with 1 MPI tasks x 1 OpenMP threads

MPI task timing breakdown:
Section |  min time  |  avg time  |  max time  |%varavg| %total
---------------------------------------------------------------
Pair    | 2.1792e+05 | 2.1792e+05 | 2.1792e+05 |   0.0 | 92.09
Bond    | 9.8764     | 9.8764     | 9.8764     |   0.0 |  0.00
Kspace  | 7355.6     | 7355.6     | 7355.6     |   0.0 |  3.11
Neigh   | 6524.3     | 6524.3     | 6524.3     |   0.0 |  2.76
Comm    | 725.17     | 725.17     | 725.17     |   0.0 |  0.31
Output  | 0.084311   | 0.084311   | 0.084311   |   0.0 |  0.00
Modify  | 3938.2     | 3938.2     | 3938.2     |   0.0 |  1.66
Other   |            | 152.9      |            |       |  0.06

Nlocal:        2400.00 ave        2400 max        2400 min
Histogram: 1 0 0 0 0 0 0 0 0 0
Nghost:        18819.0 ave       18819 max       18819 min
Histogram: 1 0 0 0 0 0 0 0 0 0
Neighs:    1.85101e+06 ave 1.85101e+06 max 1.85101e+06 min
Histogram: 1 0 0 0 0 0 0 0 0 0

Total # of neighbors = 1851010
Ave neighs/atom = 771.25417
Ave special neighs/atom = 8.5000000
Neighbor list builds = 80116
Dangerous builds = 0
Total wall time: 75:01:18
