LAMMPS (29 Sep 2021 - Update 2)
OMP_NUM_THREADS environment is not set. Defaulting to 1 thread. (src/comm.cpp:98)
  using 1 OpenMP thread(s) per MPI task
Reading data file ...
  orthogonal box = (-15.466318 -15.466318 -15.466318) to (15.466318 15.466318 15.466318)
  1 by 1 by 1 MPI processor grid
  reading atoms ...
  2400 atoms
  scanning bonds ...
  3 = max bonds/atom
  scanning angles ...
  3 = max angles/atom
  scanning dihedrals ...
  4 = max dihedrals/atom
  reading bonds ...
  2400 bonds
  reading angles ...
  3600 angles
  reading dihedrals ...
  3600 dihedrals
Finding 1-2 1-3 1-4 neighbors ...
  special bond factors lj:    0        0        0       
  special bond factors coul:  0        0        0       
     3 = max # of 1-2 neighbors
     4 = max # of 1-3 neighbors
     8 = max # of 1-4 neighbors
    10 = max # of special neighbors
  special bonds CPU = 0.001 seconds
  read_data CPU = 0.032 seconds
  200 rigid bodies with 2400 atoms
PPPM initialization ...
  using 12-bit tables for long-range coulomb (src/kspace.cpp:340)
  G vector (1/distance) = 0.1428774
  grid = 6 6 6
  stencil order = 5
  estimated absolute RMS force accuracy = 0.0078609937
  estimated relative force accuracy = 2.3673149e-05
  using double precision FFTW3
  3d grid and FFT values/proc = 1331 216
Neighbor list info ...
  update every 1 steps, delay 10 steps, check yes
  max neighbors/atom: 2000, page size: 100000
  master list distance cutoff = 16.655
  ghost atom cutoff = 16.655
  binsize = 8.3275, bins = 4 4 4
  1 neighbor lists, perpetual/occasional/extra = 1 0 0
  (1) pair lj/cut/coul/long, perpetual
      attributes: half, newton on
      pair build: half/bin/newton
      stencil: half/bin/3d
      bin: standard
Setting up Verlet run ...
  Unit style    : real
  Current step  : 0
  Time step     : 1
Per MPI rank memory allocation (min/avg/max) = 29.12 | 29.12 | 29.12 Mbytes
Step Temp E_pair E_mol TotEng Press 
       0    309.82173     12647.25            0    13015.734    97379.303 
    5000    9602.6161    1582.1458            0    13002.952    67947.611 
Loop time of 339.617 on 1 procs for 5000 steps with 2400 atoms

Performance: 1.272 ns/day, 18.868 hours/ns, 14.722 timesteps/s
100.0% CPU use with 1 MPI tasks x 1 OpenMP threads

MPI task timing breakdown:
Section |  min time  |  avg time  |  max time  |%varavg| %total
---------------------------------------------------------------
Pair    | 284.07     | 284.07     | 284.07     |   0.0 | 83.64
Bond    | 0.0047088  | 0.0047088  | 0.0047088  |   0.0 |  0.00
Kspace  | 8.8735     | 8.8735     | 8.8735     |   0.0 |  2.61
Neigh   | 44.173     | 44.173     | 44.173     |   0.0 | 13.01
Comm    | 1.0476     | 1.0476     | 1.0476     |   0.0 |  0.31
Output  | 3.8427e-05 | 3.8427e-05 | 3.8427e-05 |   0.0 |  0.00
Modify  | 1.3179     | 1.3179     | 1.3179     |   0.0 |  0.39
Other   |            | 0.1328     |            |       |  0.04

Nlocal:        2400.00 ave        2400 max        2400 min
Histogram: 1 0 0 0 0 0 0 0 0 0
Nghost:        19184.0 ave       19184 max       19184 min
Histogram: 1 0 0 0 0 0 0 0 0 0
Neighs:    1.88183e+06 ave 1.88183e+06 max 1.88183e+06 min
Histogram: 1 0 0 0 0 0 0 0 0 0

Total # of neighbors = 1881832
Ave neighs/atom = 784.09667
Ave special neighs/atom = 8.5000000
Neighbor list builds = 425
Dangerous builds = 52
  create bodies CPU = 0.001 seconds
  200 rigid bodies with 2400 atoms
  3.8930168 = max distance from body owner to body atom
PPPM initialization ...
  using 12-bit tables for long-range coulomb (src/kspace.cpp:340)
  G vector (1/distance) = 0.1428774
  grid = 6 6 6
  stencil order = 5
  estimated absolute RMS force accuracy = 0.0078609937
  estimated relative force accuracy = 2.3673149e-05
  using double precision FFTW3
  3d grid and FFT values/proc = 1331 216
Setting up Verlet run ...
  Unit style    : real
  Current step  : 5000
  Time step     : 1
Per MPI rank memory allocation (min/avg/max) = 37.01 | 37.01 | 37.01 Mbytes
Step Temp E_pair E_mol TotEng Press Volume 
    5000    9602.6161    1582.1458            0    13002.952    69775.046    29597.212 
 1005000    315.85426   -1324.1661            0   -948.50698    436.04086    30253.385 
Loop time of 57276.7 on 1 procs for 1000000 steps with 2400 atoms

Performance: 1.508 ns/day, 15.910 hours/ns, 17.459 timesteps/s
100.0% CPU use with 1 MPI tasks x 1 OpenMP threads

MPI task timing breakdown:
Section |  min time  |  avg time  |  max time  |%varavg| %total
---------------------------------------------------------------
Pair    | 52806      | 52806      | 52806      |   0.0 | 92.19
Bond    | 2.1735     | 2.1735     | 2.1735     |   0.0 |  0.00
Kspace  | 1799.8     | 1799.8     | 1799.8     |   0.0 |  3.14
Neigh   | 1566       | 1566       | 1566       |   0.0 |  2.73
Comm    | 167.79     | 167.79     | 167.79     |   0.0 |  0.29
Output  | 4.3391e-05 | 4.3391e-05 | 4.3391e-05 |   0.0 |  0.00
Modify  | 901.55     | 901.55     | 901.55     |   0.0 |  1.57
Other   |            | 33.7       |            |       |  0.06

Nlocal:        2400.00 ave        2400 max        2400 min
Histogram: 1 0 0 0 0 0 0 0 0 0
Nghost:        18748.0 ave       18748 max       18748 min
Histogram: 1 0 0 0 0 0 0 0 0 0
Neighs:    1.83746e+06 ave 1.83746e+06 max 1.83746e+06 min
Histogram: 1 0 0 0 0 0 0 0 0 0

Total # of neighbors = 1837459
Ave neighs/atom = 765.60792
Ave special neighs/atom = 8.5000000
Neighbor list builds = 16158
Dangerous builds = 0
PPPM initialization ...
  using 12-bit tables for long-range coulomb (src/kspace.cpp:340)
  G vector (1/distance) = 0.14240209
  grid = 6 6 6
  stencil order = 5
  estimated absolute RMS force accuracy = 0.0080057092
  estimated relative force accuracy = 2.4108955e-05
  using double precision FFTW3
  3d grid and FFT values/proc = 1331 216
Setting up Verlet run ...
  Unit style    : real
  Current step  : 0
  Time step     : 1
Per MPI rank memory allocation (min/avg/max) = 37.01 | 37.01 | 37.01 Mbytes
Step Temp Press v_dens Volume PotEng KinEng TotEng E_vdwl E_coul E_pair E_bond E_angle E_dihed E_impro E_mol E_long E_tail 
       0    315.85426    417.31256    857.48912    30253.385   -1324.1883    375.65911   -948.52915   -1545.8128    798.32053   -1324.1883            0            0            0            0            0   -576.69601   -27.787404 
    5000    342.21062    80.618479    839.71679    30893.688   -1280.5593    407.00588   -873.55339   -1507.3937    803.61597   -1280.5593            0            0            0            0            0   -576.78158   -27.211482 
   10000    331.88825   -138.96667    830.05435    31253.313   -1280.4272    394.72904   -885.69819   -1505.6882     802.0218   -1280.4272            0            0            0            0            0   -576.76087   -26.898365 
   15000    320.62408   -87.418798    857.70311    30245.837   -1321.1501    381.33208   -939.81805   -1556.1245    812.01472   -1321.1501            0            0            0            0            0   -577.04031   -27.794339 
   20000    312.95842   -57.541962    813.97191    31870.815   -1222.9577    372.21497   -850.74272   -1452.9972    806.63939   -1222.9577            0            0            0            0            0   -576.59989   -26.377205 
   25000    321.08127   -200.61068    835.02595    31067.236   -1283.4726    381.87583   -901.59682   -1509.6341    803.13886   -1283.4726            0            0            0            0            0   -576.97744   -27.059473 
   30000    330.84324    113.72807    854.56362    30356.954   -1314.6547    393.48617   -921.16851   -1545.4452    807.62622   -1314.6547            0            0            0            0            0   -576.83566   -27.692601 
   35000    289.17027   -207.67136    852.53732    30429.106   -1321.8525     343.9227   -977.92979   -1549.1274    804.05981   -1321.8525            0            0            0            0            0   -576.78494   -27.626938 
   40000    332.35773   -672.97174    836.67746    31005.913   -1299.6618    395.28741   -904.37443   -1527.3192    804.61274   -1299.6618            0            0            0            0            0   -576.95535   -27.112991 
   45000    320.07345    178.71226    861.37053    30117.061   -1335.6609    380.67719   -954.98375   -1562.1031     803.1612   -1335.6609            0            0            0            0            0   -576.71904   -27.913183 
   50000    294.41888    41.428676    854.80227    30348.479   -1322.5976     350.1651   -972.43249   -1550.4117    804.73952   -1322.5976            0            0            0            0            0   -576.92537   -27.700335 
   55000     309.7006    245.88142    836.86119    30999.106   -1267.7637    368.34031   -899.42343   -1494.6051    803.86617   -1267.7637            0            0            0            0            0   -577.02486   -27.118945 
   60000    308.50643   -266.27221    837.11331     30989.77   -1290.9082    366.92003   -923.98819   -1515.9962    802.00027   -1290.9082            0            0            0            0            0   -576.91231   -27.127115 
   65000     328.9651    19.715646    826.62375    31383.019   -1248.5887    391.25241   -857.33629   -1472.2187      800.618   -1248.5887            0            0            0            0            0     -576.988   -26.787195 
   70000     320.2127   -51.894853    860.31414    30154.042   -1334.4466     380.8428   -953.60383   -1567.5046     809.9093   -1334.4466            0            0            0            0            0   -576.85134    -27.87895 
   75000    288.57894   -280.45087    823.58236    31498.913   -1254.7411     343.2194   -911.52174    -1481.588    803.67937   -1254.7411            0            0            0            0            0   -576.83254   -26.688637 
   80000    320.77004    157.83818    836.76311    31002.739    -1270.929    381.50567   -889.42335   -1501.0602    806.99365    -1270.929            0            0            0            0            0   -576.86252   -27.115766 
   85000    314.96975   -97.947844    815.96317    31793.039   -1237.4987    374.60713   -862.89156    -1461.485    800.69836   -1237.4987            0            0            0            0            0   -576.71208   -26.441733 
   90000      311.375   -33.323375    835.62075    31045.123   -1285.8073    370.33175   -915.47554   -1511.6001    802.54017   -1285.8073            0            0            0            0            0   -576.74734   -27.078747 
   95000    314.07837    34.793095    850.82522    30490.338    -1310.718    373.54698   -937.17107   -1534.9386    801.44373    -1310.718            0            0            0            0            0   -577.22322   -27.571456 
  100000    310.89934   -192.56571      841.078     30843.69   -1297.1027    369.76602   -927.33666   -1527.2573    806.94554   -1297.1027            0            0            0            0            0   -576.79095   -27.255592 
  105000    335.93996   -154.68505    842.58402     30788.56   -1298.7605    399.54791   -899.21262   -1523.1525    801.27093   -1298.7605            0            0            0            0            0   -576.87895   -27.304396 
  110000    325.24161   -344.76389    824.40629    31467.432   -1248.0614     386.8239   -861.23751   -1476.8073     805.5843   -1248.0614            0            0            0            0            0   -576.83837   -26.715337 
  115000    310.26662   -236.53205    811.27415    31976.797   -1209.2554     369.0135   -840.24192   -1443.0192    810.64441   -1209.2554            0            0            0            0            0   -576.88062   -26.289782 
  120000    317.97125   -337.04343    827.91013    31334.257   -1266.0646    378.17694   -887.88765   -1496.5122    807.45966   -1266.0646            0            0            0            0            0   -577.01204    -26.82888 
  125000    343.86573   -80.263709    847.18911    30621.202   -1302.0757    408.97437   -893.10134    -1543.198    817.84937   -1302.0757            0            0            0            0            0    -576.7271   -27.453627 
  130000    317.46934    345.18973    831.43711    31201.336   -1236.4872    377.58001   -858.90717   -1467.1222    807.59408   -1236.4872            0            0            0            0            0   -576.95904   -26.943174 
  135000    312.58746   -26.380958    841.19171     30839.52   -1290.5859    371.77378   -918.81211   -1519.0565       805.52   -1290.5859            0            0            0            0            0   -577.04939   -27.259278 
  140000     305.5919    359.27136    854.68693    30352.574   -1313.0938    363.45366   -949.64016   -1538.5399    802.20175   -1313.0938            0            0            0            0            0   -576.75568   -27.696597 
  145000    296.90946    275.73393    856.77203    30278.706   -1317.5563    353.12725   -964.42906   -1541.3605    800.89833   -1317.5563            0            0            0            0            0   -577.09416   -27.764166 
  150000    320.82772    47.025776    840.15766    30877.477   -1275.6594    381.57427   -894.08509   -1504.2709    805.33429   -1275.6594            0            0            0            0            0   -576.72278   -27.225768 
  155000    302.04271    65.838978    850.72807     30493.82   -1309.2188    359.23245   -949.98638   -1535.8093    803.37244   -1309.2188            0            0            0            0            0   -576.78194   -27.568308 
  160000     314.5479    28.403531    829.52107    31273.405   -1260.0851    374.10541   -885.97965   -1482.2443    799.00208   -1260.0851            0            0            0            0            0   -576.84282   -26.881084 
  165000    320.52666   -574.36348    841.99534    30810.086    -1312.669     381.2162   -931.45277     -1540.72    804.74176    -1312.669            0            0            0            0            0   -576.69074   -27.285319 
  170000    346.32944   -434.29462    822.71278    31532.206   -1255.6541    411.90457   -843.74954   -1482.8206    804.01641   -1255.6541            0            0            0            0            0   -576.84997   -26.660458 
  175000    321.39617    425.76386    829.04339    31291.425   -1238.8005    382.25035    -856.5502   -1467.6431    805.76639   -1238.8005            0            0            0            0            0   -576.92387   -26.865604 
  180000    321.58863    -27.46531    837.24315    30984.964     -1286.48    382.47926   -904.00073   -1517.9038     808.4637     -1286.48            0            0            0            0            0   -577.03989   -27.131322 
  185000    334.20711   -351.82018    826.02423    31405.796   -1264.4812    397.48695   -866.99428   -1496.2276    808.34651   -1264.4812            0            0            0            0            0   -576.60013   -26.767767 
  190000     324.9152   -4.1101683     832.6688    31155.183   -1263.3827    386.43569   -876.94702   -1497.2367    810.66793   -1263.3827            0            0            0            0            0   -576.81395   -26.983088 
  195000    332.79304   -360.34883    832.49446    31161.707   -1286.5794    395.80514   -890.77422   -1507.7167    798.10106   -1286.5794            0            0            0            0            0   -576.96376   -26.977438 
  200000    334.47926    146.28133    839.77929    30891.389   -1285.7362    397.81064   -887.92561   -1514.4753    805.78189   -1285.7362            0            0            0            0            0   -577.04286   -27.213507 
  205000    321.50693    299.91288    836.92911     30996.59   -1271.3884    382.38209   -889.00629   -1500.6938    806.26465   -1271.3884            0            0            0            0            0   -576.95926   -27.121145 
  210000    322.32561   -222.03165    812.21493    31939.759   -1232.0412    383.35577   -848.68547   -1461.6805     806.5704   -1232.0412            0            0            0            0            0   -576.93114   -26.320269 
  215000    307.48296    95.444782    847.77396    30600.077   -1299.8588    365.70277   -934.15607   -1530.1966    807.21154   -1299.8588            0            0            0            0            0   -576.87377   -27.472579 
  220000    320.07147    84.240109    832.81019    31149.893   -1260.1004    380.67483   -879.42556   -1489.3703    806.16249   -1260.1004            0            0            0            0            0   -576.89262    -26.98767 
  225000    306.67985   -14.119894    832.01304    31179.738   -1266.2292    364.74759   -901.48161    -1496.539    807.26932   -1266.2292            0            0            0            0            0   -576.95956   -26.961838 
  230000    285.86524    212.10725    849.41472    30540.969   -1300.1297    339.99189   -960.13782   -1528.8792    805.56129   -1300.1297            0            0            0            0            0   -576.81177   -27.525749 
  235000    332.50908   -164.10449    829.87235    31260.168   -1264.3672    395.46741   -868.89981   -1496.2272    808.57688   -1264.3672            0            0            0            0            0   -576.71693   -26.892467 
  240000    323.06766   -232.93748    838.53374    30937.275   -1296.8307    384.23832   -912.59241   -1518.1721    798.41604   -1296.8307            0            0            0            0            0   -577.07462   -27.173144 
  245000    311.19138    204.51344    830.62432    31231.867   -1254.5965    370.11336   -884.48309   -1481.1703    803.48973   -1254.5965            0            0            0            0            0   -576.91584   -26.916835 
  250000    311.40247   -26.416802    819.17018     31668.57   -1223.9718    370.36441   -853.60738   -1459.5612      812.431   -1223.9718            0            0            0            0            0   -576.84157   -26.545658 
  255000    333.96528   -279.39181    832.58911    31158.165   -1276.5089    397.19933   -879.30955    -1507.743    807.94847   -1276.5089            0            0            0            0            0   -576.71436   -26.980505 
  260000    325.48401   -285.17341    837.40308    30979.046   -1288.7159     387.1122   -901.60375   -1510.5458    798.62624   -1288.7159            0            0            0            0            0    -576.7964   -27.136505 
  265000     306.1615   -295.59312    839.55865    30899.507   -1281.2426     364.1311   -917.11149   -1521.2475     816.5684   -1281.2426            0            0            0            0            0   -576.56346   -27.206357 
  270000    317.74081     74.79235    827.55984     31347.52   -1238.6555    377.90288   -860.75262   -1473.2899    811.70624   -1238.6555            0            0            0            0            0   -577.07185   -26.817529 
  275000    329.55251   -35.305723    825.43504    31428.213   -1248.4469    391.95104   -856.49582   -1478.4157    806.60973   -1248.4469            0            0            0            0            0   -576.64091   -26.748674 
  280000    333.48352   -30.450429    846.39137    30650.063   -1300.3647    396.62636    -903.7383   -1531.2184    807.51323   -1300.3647            0            0            0            0            0   -576.65949   -27.427775 
  285000    302.25872    46.299969    842.36521    30796.557   -1286.2239    359.48936   -926.73457   -1510.6892    801.44912   -1286.2239            0            0            0            0            0   -576.98387   -27.297305 
  290000    330.62847    18.428741    834.40769    31090.256   -1266.0418    393.23072   -872.81103   -1495.0795    805.96118   -1266.0418            0            0            0            0            0   -576.92342   -27.039438 
  295000    319.49288    -595.8394    816.68417     31764.97   -1247.4964    379.98669   -867.50971   -1481.5897     811.1922   -1247.4964            0            0            0            0            0   -577.09892   -26.465097 
  300000    303.31229    -40.44244    829.34321    31280.112   -1257.3044    360.74241   -896.56197   -1489.8586    809.22758   -1257.3044            0            0            0            0            0    -576.6734    -26.87532 
  305000    322.34817   -236.99625    826.55282    31385.712   -1261.1521     383.3826   -877.76947   -1486.2253    802.11252   -1261.1521            0            0            0            0            0   -577.03932   -26.784896 
  310000    303.52841   -466.60743    832.54428    31159.843   -1275.5984    360.99945   -914.59891   -1509.5035    810.51603   -1275.5984            0            0            0            0            0   -576.61092   -26.979053 
  315000    305.62995    173.52202    830.29734    31244.167   -1250.7006    363.49891   -887.20168   -1487.1051    813.11996   -1250.7006            0            0            0            0            0   -576.71546    -26.90624 
  320000    306.71705    160.53498    842.38594      30795.8   -1283.6097    364.79184    -918.8179   -1515.6485     808.7033   -1283.6097            0            0            0            0            0   -576.66457   -27.297977 
  325000    315.81338   -88.184152    841.30178    30835.485   -1297.0802     375.6105   -921.46971   -1526.9247     806.3184   -1297.0802            0            0            0            0            0   -576.47393   -27.262844 
  330000    322.89043    154.10496    842.91811    30776.357   -1287.2249    384.02754   -903.19733    -1517.034    806.91654   -1287.2249            0            0            0            0            0   -577.10744   -27.315222 
  335000    310.98943    323.43609    856.92593    30273.269   -1325.6962    369.87317   -955.82306    -1547.802    798.90069   -1325.6962            0            0            0            0            0   -576.79489   -27.769153 
  340000    300.26394    87.341958    835.63729    31044.508   -1276.1552    357.11687   -919.03836   -1503.1636    804.13192   -1276.1552            0            0            0            0            0   -577.12356   -27.079283 
  345000    338.38537   -582.87124    834.42132    31089.748    -1290.145    402.45634   -887.68867   -1517.3391    804.29214    -1290.145            0            0            0            0            0    -577.0981   -27.039879 
  350000     305.7561    261.19623    838.93147    30922.608   -1274.3952    363.64894   -910.74628   -1503.3504    805.74377   -1274.3952            0            0            0            0            0    -576.7886   -27.186033 
  355000    324.59692   -58.228388    838.56319    30936.188   -1284.8579    386.05714   -898.80081   -1512.4212    804.30099   -1284.8579            0            0            0            0            0   -576.73777   -27.174099 
  360000    324.80359     271.4429    830.16739    31249.058   -1240.1237    386.30294   -853.82078   -1475.4974    812.29139   -1240.1237            0            0            0            0            0   -576.91774   -26.902028 
  365000    307.01174    205.52668     830.3431    31242.445   -1245.5823    365.14233      -880.44    -1475.691    807.03811   -1245.5823            0            0            0            0            0   -576.92943   -26.907722 
  370000     315.1348    120.34777    833.52272    31123.265   -1267.8981    374.80343   -893.09462   -1494.2702    803.16631   -1267.8981            0            0            0            0            0   -576.79418    -27.01076 
  375000    332.05438    620.95703    842.16219    30803.982   -1262.4351    394.92663   -867.50847   -1494.2709    808.76776   -1262.4351            0            0            0            0            0   -576.93197   -27.290726 
  380000    325.32812   -142.48993    825.15956    31438.706   -1262.7896    386.92679   -875.86286   -1486.6545    800.90651   -1262.7896            0            0            0            0            0   -577.04165   -26.739747 
  385000    337.37974   -139.09183    839.68018    30895.035   -1287.8925     401.2603   -886.63216   -1516.7741     805.8527   -1287.8925            0            0            0            0            0   -576.97109   -27.210296 
  390000    318.81408    133.94769    854.79789    30348.634   -1317.6548    379.17936   -938.47546    -1542.653    801.96575   -1317.6548            0            0            0            0            0    -576.9676   -27.700193 
  395000    302.69553    158.12301    843.22914    30765.005    -1290.511    360.00888   -930.50217   -1515.4561    801.65098    -1290.511            0            0            0            0            0   -576.70588   -27.325301 
  400000    330.10324   -471.11706    825.68045    31418.872    -1262.949    392.60604   -870.34299   -1498.3152    812.28218    -1262.949            0            0            0            0            0   -576.91598   -26.756627 
  405000    326.71566   -181.74445    831.58417    31195.818   -1263.8545    388.57705    -875.2775   -1499.9195    813.11219   -1263.8545            0            0            0            0            0   -577.04727    -26.94794 
  410000     342.1077   -70.740518    825.85821     31412.11    -1256.289    406.88348   -849.40553   -1489.6774    810.15911    -1256.289            0            0            0            0            0   -576.77068   -26.762387 
  415000     300.7088   -446.26687    825.01339    31444.276   -1264.8656    357.64596   -907.21961   -1489.9893    801.95649   -1264.8656            0            0            0            0            0   -576.83274    -26.73501 
  420000    312.95727    185.19164    831.14221    31212.407   -1253.5551    372.21361   -881.34149   -1481.0566    804.34919   -1253.5551            0            0            0            0            0    -576.8477   -26.933618 
  425000    342.37479    75.721439    842.30928    30798.603    -1288.866    407.20113   -881.66488   -1519.4824      807.502    -1288.866            0            0            0            0            0    -576.8856   -27.295493 
  430000    324.31663    205.47011    846.26398    30654.676   -1281.6847    385.72378   -895.96091      -1515.5    810.45643   -1281.6847            0            0            0            0            0   -576.64112   -27.423647 
  435000    332.07979    228.16802    842.22649     30801.63   -1286.7502    394.95684   -891.79337   -1509.5574    799.63398   -1286.7502            0            0            0            0            0   -576.82676    -27.29281 
  440000    304.98865    147.09696    836.77676    31002.234   -1276.6755    362.73618   -913.93931   -1502.5778    802.83064   -1276.6755            0            0            0            0            0   -576.92837   -27.116209 
  445000     323.9342     427.5234    858.57591     30215.09   -1325.2646    385.26894   -939.99561   -1547.3169    799.07052   -1325.2646            0            0            0            0            0   -577.01818   -27.822622 
  450000    326.17576   -362.50216    838.63258    30933.628   -1289.6882    387.93493   -901.75328   -1521.6261    808.94928   -1289.6882            0            0            0            0            0   -577.01134   -27.176347 
  455000    319.24956   -286.72768    823.08503    31517.945   -1250.1287    379.69729   -870.43143   -1483.9526    810.51117   -1250.1287            0            0            0            0            0   -576.68728   -26.672521 
  460000    302.52816   -561.44819    811.60956    31963.582   -1225.2693    359.80981   -865.45948   -1462.2695    813.75325   -1225.2693            0            0            0            0            0   -576.75303   -26.300652 
  465000    326.15377   -223.74159     843.8479    30742.446    -1303.931    387.90877   -916.02222    -1530.048    803.06842    -1303.931            0            0            0            0            0   -576.95136   -27.345353 
  470000    316.06615   -217.14609    856.01175    30305.599   -1327.8529    375.91113    -951.9418   -1560.0466    809.13154   -1327.8529            0            0            0            0            0   -576.93791   -27.739529 
  475000    320.35962   -269.58467    845.78734    30671.952   -1303.4702    381.01754   -922.45265   -1533.6776    806.99287   -1303.4702            0            0            0            0            0   -576.78547   -27.408201 
  480000    284.13251   -97.411192    830.77519    31226.196   -1260.7111    337.93107   -922.77999   -1491.7517    808.05575   -1260.7111            0            0            0            0            0    -577.0151   -26.921724 
  485000    312.26803   -38.289262    841.29031    30835.906   -1288.4477    371.39386   -917.05387   -1513.1009     801.4757   -1288.4477            0            0            0            0            0   -576.82252   -27.262473 
  490000    322.12754   -60.060861    834.40893     31090.21   -1276.4642     383.1202   -893.34403   -1501.7449     802.0375   -1276.4642            0            0            0            0            0   -576.75686   -27.039478 
  495000    299.92474   -75.173965    848.99992    30555.891   -1316.9116    356.71345   -960.19816   -1546.8485     806.7747   -1316.9116            0            0            0            0            0   -576.83776   -27.512307 
  500000    317.67443    1.5481293    855.30254    30330.728   -1330.7645    377.82392   -952.94053   -1559.6807    805.75066   -1330.7645            0            0            0            0            0   -576.83443   -27.716547 
  505000    309.89492    45.080189    840.45663    30866.493   -1293.2524    368.57142   -924.68098    -1516.145    799.88443   -1293.2524            0            0            0            0            0   -576.99181   -27.235457 
  510000    320.53014    347.96531    828.45241    31313.746   -1239.1444    381.22035   -857.92407   -1471.4114    809.33019   -1239.1444            0            0            0            0            0   -577.06324   -26.846453 
  515000    305.72567    43.168747    847.72219    30601.946   -1298.3041    363.61274   -934.69135    -1527.999    806.71015   -1298.3041            0            0            0            0            0   -577.01523   -27.470901 
  520000    328.73938    162.15127    846.23362    30655.776   -1293.5893    390.98395   -902.60539    -1520.653    803.95331   -1293.5893            0            0            0            0            0   -576.88961   -27.422663 
  525000    312.60218    223.26901    844.83927    30706.372   -1293.8666    371.79128   -922.07529   -1515.5527     798.5898   -1293.8666            0            0            0            0            0    -576.9037   -27.377478 
  530000    313.80354   -175.29856    848.20372    30584.573   -1312.9111    373.22011   -939.69103   -1534.7539    798.70069   -1312.9111            0            0            0            0            0    -576.8579   -27.486505 
  535000    349.75611    618.30972    852.78219    30420.369   -1307.9125    415.98006   -891.93243   -1531.5521    800.26965   -1307.9125            0            0            0            0            0   -576.63006   -27.634873 
  540000    303.00446      130.835    868.25913    29878.118   -1349.5798     360.3763   -989.20354   -1575.9012    803.08091   -1349.5798            0            0            0            0            0   -576.75957   -28.136412 
  545000    316.42698   -143.31492    828.01994    31330.101   -1269.1297    376.34029   -892.78939   -1503.4823    811.27617   -1269.1297            0            0            0            0            0    -576.9235   -26.832439 
  550000    332.07926   -251.65775    815.67145    31804.409   -1224.8663    394.95621   -829.91004    -1465.464    817.46453   -1224.8663            0            0            0            0            0   -576.86681   -26.432279 
  555000    290.94521   -311.04247    834.03311    31104.219   -1277.1279    346.03371   -931.09422   -1509.1628    808.90486   -1277.1279            0            0            0            0            0   -576.87001   -27.027299 
  560000    312.16237   -105.67359    825.37481    31430.507   -1257.8713     371.2682   -886.60309   -1482.3063    801.38984   -1257.8713            0            0            0            0            0   -576.95479   -26.746722 
  565000    321.17302    -446.8115    832.28147    31169.682   -1269.7897    381.98495   -887.80477   -1497.8196    805.09378   -1269.7897            0            0            0            0            0   -577.06395   -26.970536 
  570000    328.83563    21.079406    839.80415    30890.474   -1292.6129    391.09842   -901.51444   -1522.2811    806.43059   -1292.6129            0            0            0            0            0   -576.76236   -27.214313 
  575000     299.5955   -44.139252     833.0085    31142.478   -1269.8184    356.32187   -913.49657   -1496.7725    803.66873   -1269.8184            0            0            0            0            0   -576.71467   -26.994096 
  580000    307.68611    441.42984    839.96024    30884.734   -1275.3717    365.94439   -909.42735   -1500.3808    801.90185   -1275.3717            0            0            0            0            0   -576.89275   -27.219371 
  585000    329.90929   -247.64275    828.79964    31300.627   -1262.9558    392.37537   -870.58038   -1496.8274    810.72911   -1262.9558            0            0            0            0            0   -576.85744   -26.857706 
  590000    312.16697    -396.5955    820.21316    31628.301   -1255.1203    371.27367   -883.84658   -1476.5909    798.11124   -1255.1203            0            0            0            0            0   -576.64055   -26.579456 
  595000       336.01    460.09231    845.61864    30678.071   -1273.4964    399.63121   -873.86517   -1509.2236    812.36454   -1273.4964            0            0            0            0            0   -576.63736   -27.402734 
  600000    313.88316    169.98415    825.22477    31436.221   -1234.6293    373.31481   -861.31446    -1468.549    810.61441   -1234.6293            0            0            0            0            0   -576.69468    -26.74186 
  605000    349.17074   -146.01225    827.16547    31362.465   -1256.4901    415.28385   -841.20625   -1480.8889    801.50615   -1256.4901            0            0            0            0            0   -577.10731    -26.80475 
  610000    301.70136    60.296862    840.34099     30870.74   -1273.5263    358.82646   -914.69982   -1513.6995    817.07183   -1273.5263            0            0            0            0            0   -576.89858   -27.231709 
  615000    317.56456    118.39809    841.03231    30845.365   -1287.0962    377.69325   -909.40292   -1511.8689    801.57082   -1287.0962            0            0            0            0            0   -576.79813   -27.254112 
  620000    336.56892   -434.16076    828.74005    31302.878    -1301.382    400.29596   -901.08608   -1520.1141    795.90566    -1301.382            0            0            0            0            0    -577.1736   -26.855775 
  625000    325.30214   -338.06558    837.14785    30988.491   -1294.2162     386.8959   -907.32033   -1519.2067    801.95479   -1294.2162            0            0            0            0            0   -576.96436   -27.128234 
  630000    317.17311    96.083903    844.88245    30704.802   -1293.7956    377.22768   -916.56788   -1519.7981    803.01459   -1293.7956            0            0            0            0            0   -577.01205   -27.378878 
  635000    320.43051     180.0994    840.08582    30880.117   -1285.8353    381.10185   -904.73347   -1510.3331    801.29894   -1285.8353            0            0            0            0            0    -576.8012    -27.22344 
  640000    307.88816    588.28214    849.63763    30532.956   -1278.6839    366.18469   -912.49918   -1508.6044    806.97699   -1278.6839            0            0            0            0            0   -577.05649   -27.532972 
  645000    303.20574   -159.12408    822.73873    31531.211   -1247.7953    360.61568   -887.17961   -1478.6046    807.60192   -1247.7953            0            0            0            0            0   -576.79265   -26.661298 
  650000    315.46101    265.92186    835.07484    31065.418   -1255.1075    375.19142   -879.91604   -1486.4169    808.16567   -1255.1075            0            0            0            0            0   -576.85623   -27.061057 
  655000    321.73939   -121.50996    849.29021    30545.446   -1309.2819    382.65856   -926.62336   -1542.4853    810.13969   -1309.2819            0            0            0            0            0    -576.9363   -27.521714 
  660000    313.54341     109.8287    830.84851     31223.44   -1254.5873    372.91073   -881.67661   -1482.8875    805.29495   -1254.5873            0            0            0            0            0   -576.99481     -26.9241 
  665000    320.11772   -120.59861    817.26505    31742.393   -1225.1342    380.72984   -844.40435   -1459.7181    811.54901   -1225.1342            0            0            0            0            0   -576.96514   -26.483921 
  670000    312.92175    33.346294    838.06191    30954.692   -1272.9717    372.17135   -900.80034   -1500.4125    804.28855   -1272.9717            0            0            0            0            0   -576.84774   -27.157855 
  675000    302.56339   -8.5083643    835.72786    31041.144   -1273.1921    359.85171    -913.3404   -1499.4473    803.10704   -1273.1921            0            0            0            0            0    -576.8519   -27.082218 
  680000    317.93935   -555.58978     840.0999      30879.6   -1299.7821    378.13901   -921.64308   -1532.8372    809.70494   -1299.7821            0            0            0            0            0   -576.64979   -27.223897 
  685000    312.78513   -159.67405    854.23256    30368.719   -1318.8321    372.00887    -946.8232   -1548.4496    806.62904   -1318.8321            0            0            0            0            0   -577.01154   -27.681873 
  690000    327.41229    212.78262    845.03653    30699.204   -1290.3048    389.40558    -900.8992   -1515.0511     801.6538   -1290.3048            0            0            0            0            0   -576.90753   -27.383871 
  695000    319.98798     388.2783    850.32134    30508.406   -1302.0064    380.57553   -921.43092   -1530.4931    805.56898   -1302.0064            0            0            0            0            0    -577.0823   -27.555128 
  700000    316.61207     353.1553    841.40743    30831.613   -1271.3586    376.56041   -894.79815   -1510.0013    815.75847   -1271.3586            0            0            0            0            0    -577.1157   -27.266268 
  705000    320.07193   -69.124462    843.02052    30772.618   -1303.1304    380.67537   -922.45501   -1526.1688    800.00259   -1303.1304            0            0            0            0            0   -576.96417   -27.318541 
  710000    317.58326   -365.82337    832.23632    31171.373   -1291.1079    377.71549    -913.3924    -1510.268    796.02611   -1291.1079            0            0            0            0            0   -576.86602   -26.969073 
  715000    309.88215   -158.47779    845.78313    30672.105   -1317.5619    368.55623    -949.0057   -1541.3344    800.70739   -1317.5619            0            0            0            0            0   -576.93493   -27.408065 
  720000    288.75591    505.12371    832.17834    31173.545   -1246.1807    343.42988   -902.75085   -1479.5952    810.19802   -1246.1807            0            0            0            0            0   -576.78359   -26.967194 
  725000     315.0146    340.11238    865.68015    29967.129   -1339.7049    374.66047    -965.0444   -1564.2586    801.75433   -1339.7049            0            0            0            0            0   -577.20063   -28.052839 
  730000    331.30431   -224.89336    817.47615    31734.196   -1236.9104    394.03453   -842.87583   -1468.3574     808.4933   -1236.9104            0            0            0            0            0   -577.04625   -26.490762 
  735000    328.56545   -355.82194    823.05401    31519.133   -1248.0228    390.77708   -857.24574    -1477.801    806.63251   -1248.0228            0            0            0            0            0   -576.85437   -26.671515 
  740000     302.3183   -304.42675     833.4135    31127.344   -1281.3315    359.56022   -921.77131   -1503.4772    798.89853   -1281.3315            0            0            0            0            0   -576.75284    -27.00722 
  745000    299.07961   -36.879157    837.16642    30987.804   -1260.8175     355.7083   -905.10919   -1494.8872     810.5569   -1260.8175            0            0            0            0            0   -576.48718   -27.128836 
  750000    318.84478    701.68865    859.81168    30171.664   -1309.5368    379.21588   -930.32096   -1530.4542    797.92673   -1309.5368            0            0            0            0            0   -577.00939   -27.862668 
  755000    315.18076   -65.136728    838.93541    30922.462   -1280.2596    374.85809   -905.40151   -1513.6832    810.20455   -1280.2596            0            0            0            0            0   -576.78092   -27.186161 
  760000     303.7082     415.6581    849.98438      30520.5   -1297.2562    361.21329    -936.0429   -1520.2288    799.80985   -1297.2562            0            0            0            0            0   -576.83729   -27.544209 
  765000    315.62835     780.7688    846.67707     30639.72   -1273.7637    375.39044   -898.37323   -1499.6438    802.87216   -1273.7637            0            0            0            0            0   -576.99206   -27.437033 
  770000    340.84151   -126.48935    821.73382    31569.771   -1249.5978    405.37753   -844.22024   -1471.1118    798.50462   -1249.5978            0            0            0            0            0   -576.99057   -26.628734 
  775000    307.71169   -73.930045    843.09256    30769.989   -1297.0952     365.9748   -931.12044   -1516.0081    796.04766   -1297.0952            0            0            0            0            0    -577.1348   -27.320875 
  780000    312.16455    164.89125    842.25137     30800.72   -1296.0407    371.27079   -924.76991   -1517.7321    798.60227   -1296.0407            0            0            0            0            0   -576.91085   -27.293616 
  785000    302.80669    80.045469    850.06037    30517.772   -1304.2627    360.14108   -944.12166   -1536.4644    809.23566   -1304.2627            0            0            0            0            0   -577.03405   -27.546671 
  790000    332.57406   -178.85202    831.90813     31183.67   -1268.8263     395.5447   -873.28163   -1498.0308    806.12229   -1268.8263            0            0            0            0            0   -576.91783   -26.958438 
  795000    319.55014   -294.58591    846.51298     30645.66   -1310.5103    380.05479   -930.45555   -1536.7028    803.13421   -1310.5103            0            0            0            0            0   -576.94171   -27.431716 
  800000    304.83006   -340.90466    841.28976    30835.926   -1298.1423    362.54756    -935.5947   -1531.5879    810.44435   -1298.1423            0            0            0            0            0   -576.99871   -27.262455 
  805000      319.618      23.2536    838.84184    30925.912   -1273.7982     380.1355   -893.66274   -1504.0258    807.07968   -1273.7982            0            0            0            0            0   -576.85216   -27.183129 
  810000    303.60123    178.94096    839.89834     30887.01   -1267.3691    361.08606   -906.28305    -1503.256    812.75252   -1267.3691            0            0            0            0            0   -576.86561   -27.217365 
  815000    317.33769   -108.96083    833.45761    31125.696   -1267.4107    377.42342   -889.98731   -1501.5162     810.7927   -1267.4107            0            0            0            0            0   -576.68728    -27.00865 
  820000    315.55599   -335.53053    842.65164    30786.089   -1318.9124    375.30437   -943.60798   -1535.5073    793.57058   -1318.9124            0            0            0            0            0   -576.97559   -27.306587 
  825000    319.56936     29.57172    838.74142    30929.614   -1273.6454    380.07765   -893.56775   -1500.3804    803.71013   -1273.6454            0            0            0            0            0   -576.97514   -27.179874 
  830000    310.62377   -62.248806    836.14942    31025.494   -1279.6218    369.43828   -910.18355   -1512.8327    809.91411   -1279.6218            0            0            0            0            0   -576.70327   -27.095879 
  835000    308.80339    23.772967    845.68631    30675.616   -1297.4011    367.27322   -930.12793   -1524.1563    803.79633   -1297.4011            0            0            0            0            0   -577.04114   -27.404928 
  840000    306.79202   -440.01666    835.83628    31037.117   -1291.3724    364.88101   -926.49143   -1521.3085    807.00888   -1291.3724            0            0            0            0            0   -577.07282   -27.085732 
  845000    310.07439    309.81211    846.69408    30639.105   -1291.4125    368.78486   -922.62768   -1524.1542    809.49609   -1291.4125            0            0            0            0            0   -576.75449   -27.437585 
  850000    317.61636  -0.36498905    828.71428    31303.851   -1255.1566    377.75486   -877.40178   -1480.6471    802.41724   -1255.1566            0            0            0            0            0   -576.92684   -26.854939 
  855000    303.58319   -158.76439    831.98962    31180.616   -1265.0118    361.06461   -903.94719   -1498.4671    810.57435   -1265.0118            0            0            0            0            0   -577.11908   -26.961079 
  860000    292.74117   -479.32702    834.61652    31082.477   -1280.7716    348.16972   -932.60186    -1518.616    814.58064   -1280.7716            0            0            0            0            0   -576.73622   -27.046205 
  865000    322.24949    202.02436     838.1401    30951.805   -1271.5416    383.26524   -888.27641   -1500.3619    805.62274   -1271.5416            0            0            0            0            0   -576.80253   -27.160388 
  870000    311.79987   -111.04896    834.01552    31104.875   -1266.4292    370.83706   -895.59219   -1499.2034    809.60829   -1266.4292            0            0            0            0            0   -576.83416   -27.026729 
  875000     306.7836    16.928122    845.72458    30674.228   -1307.1553    364.87099   -942.28435   -1530.7075     800.5937   -1307.1553            0            0            0            0            0   -577.04159   -27.406168 
  880000    306.42843   -8.5380906    845.49591    30682.524   -1301.7639    364.44857   -937.31533   -1526.7178    801.88104   -1301.7639            0            0            0            0            0   -576.92711   -27.398757 
  885000    325.33824    3.4339958     826.4036    31391.379   -1249.3913    386.93883   -862.45243   -1477.9015    805.65719   -1249.3913            0            0            0            0            0   -577.14691   -26.780061 
  890000     307.3454    126.55379    856.34776    30293.708   -1327.8622    365.53917   -962.32303   -1552.0396    801.12617   -1327.8622            0            0            0            0            0   -576.94879   -27.750418 
  895000    332.64242    91.703583    856.41035    30291.494   -1324.7255      395.626   -929.09948   -1554.3173    806.51801   -1324.7255            0            0            0            0            0   -576.92616   -27.752446 
  900000    341.38366    105.35883    842.59965    30787.989   -1288.1732    406.02234   -882.15091   -1518.7857    807.57816   -1288.1732            0            0            0            0            0   -576.96572   -27.304902 
  905000    348.75484   -71.529036    819.32178    31662.711   -1239.9403     414.7892   -825.15112   -1472.2899    809.21184   -1239.9403            0            0            0            0            0   -576.86224    -26.55057 
  910000    330.41282    -426.0947    825.77915    31415.117   -1255.4602    392.97424     -862.486   -1485.6093    807.13294   -1255.4602            0            0            0            0            0   -576.98385   -26.759825 
  915000    330.33899   -318.36612    837.93425    30959.408   -1288.3444    392.88643   -895.45792   -1518.1013    806.70174   -1288.3444            0            0            0            0            0   -576.94483   -27.153718 
  920000    320.89737    292.82636    849.14056     30550.83   -1298.7821    381.65711     -917.125    -1523.119    801.16199   -1298.7821            0            0            0            0            0   -576.82506   -27.516864 
  925000    324.12768    124.32698    833.62686    31119.377   -1265.9157    385.49905   -880.41666   -1494.5418    805.35518   -1265.9157            0            0            0            0            0   -576.72909   -27.014134 
  930000    314.61618    240.49127    844.58118    30715.755   -1282.3686    374.18662   -908.18202   -1511.3738    805.70795   -1282.3686            0            0            0            0            0   -576.70281   -27.369115 
  935000    321.86596    378.45749    836.06162    31028.752   -1255.5654     382.8091   -872.75626   -1487.3923    808.85065   -1255.5654            0            0            0            0            0   -577.02371   -27.093034 
  940000    328.09036   -11.846231    840.56554    30862.494   -1291.5069    390.21204   -901.29482   -1516.4546    801.75296   -1291.5069            0            0            0            0            0   -576.80516   -27.238986 
  945000    322.42008   -76.006802    846.11278    30660.155   -1297.3593    383.46813   -913.89119   -1527.0701    806.71208   -1297.3593            0            0            0            0            0    -577.0013   -27.418747 
  950000    310.08617    195.74247    828.05452    31328.793    -1255.842    368.79889   -887.04311   -1484.5086    805.45169    -1255.842            0            0            0            0            0   -576.78508   -26.833559 
  955000    309.69838    35.651706     837.0675    30991.466   -1270.1439    368.33766   -901.80625   -1499.8548    806.68785   -1270.1439            0            0            0            0            0   -576.97692    -27.12563 
  960000    305.59392   -105.47052    849.31876     30544.42    -1302.637    363.45605   -939.18099   -1540.6002    814.86804    -1302.637            0            0            0            0            0   -576.90488   -27.522639 
  965000    328.04649   -117.09399     842.3198    30798.218   -1307.7295    390.15986   -917.56968    -1530.351    799.70295   -1307.7295            0            0            0            0            0   -577.08148   -27.295834 
  970000    304.45219   -153.74115    848.45527    30575.505   -1304.9562    362.09814   -942.85803   -1541.5765    813.35221   -1304.9562            0            0            0            0            0    -576.7319   -27.494657 
  975000     298.7582   -409.63641    825.39027    31429.918   -1248.3562    355.32604   -893.03013   -1481.5794    810.18968   -1248.3562            0            0            0            0            0   -576.96646   -26.747223 
  980000    323.08226   -253.03558    823.06627    31518.663   -1251.9413     384.2557   -867.68565   -1482.8574    807.70884   -1251.9413            0            0            0            0            0   -576.79278   -26.671913 
  985000    323.13954   -67.621467    839.02076    30919.317   -1273.8234    384.32381   -889.49961   -1508.2295    811.37127   -1273.8234            0            0            0            0            0   -576.96524   -27.188927 
  990000    325.24904    89.709085    851.14174        30479   -1306.3367    386.83274   -919.50398    -1538.979    809.49354   -1306.3367            0            0            0            0            0   -576.85123   -27.581713 
  995000    326.35832   -732.56473    817.62791    31728.306   -1249.4057    388.15205   -861.25362   -1486.5292    813.92313   -1249.4057            0            0            0            0            0   -576.79964    -26.49568 
 1000000    320.46476    -49.07832     845.9241    30666.993   -1296.7936    381.14259   -915.65106   -1528.4623    808.80096   -1296.7936            0            0            0            0            0   -577.13227   -27.412633 
 1005000    306.09976   -235.92439    831.40599    31202.504   -1267.3228    364.05767   -903.26515   -1494.6882    804.24183   -1267.3228            0            0            0            0            0   -576.87642   -26.942166 
 1010000    314.50124     282.4921     856.7705     30278.76   -1329.4206    374.04992   -955.37065    -1550.244    797.63132   -1329.4206            0            0            0            0            0   -576.80789   -27.764117 
 1015000     308.0504    78.466447    843.40431    30758.615   -1284.9982    366.37765    -918.6206   -1521.0499    812.96379   -1284.9982            0            0            0            0            0   -576.91218   -27.330978 
 1020000    317.21633    257.64915    844.57404    30716.015   -1282.1508    377.27909   -904.87171   -1508.8592    803.69274   -1282.1508            0            0            0            0            0   -576.98434   -27.368884 
 1025000    316.85433    -47.44125      844.896     30704.31   -1287.9929    376.84855   -911.14434    -1524.986    813.93945   -1287.9929            0            0            0            0            0   -576.94636   -27.379317 
 1030000    318.49495     159.1375    834.45959    31088.322   -1267.8324    378.79981   -889.03256   -1491.1176    800.05941   -1267.8324            0            0            0            0            0   -576.77413    -27.04112 
 1035000    320.53258   -1.3787604    840.60084    30861.198   -1291.4971    381.22325   -910.27383   -1515.4523    801.00547   -1291.4971            0            0            0            0            0   -577.05023    -27.24013 
 1040000    299.03175    -219.6599    841.11809    30842.219   -1300.2202    355.65138   -944.56879     -1534.52    811.26408   -1300.2202            0            0            0            0            0   -576.96424   -27.256892 
 1045000    323.43153    47.597241    836.08197    31027.997   -1283.4712     384.6711   -898.80011   -1511.6122    804.77182   -1283.4712            0            0            0            0            0   -576.63082   -27.093694 
 1050000    301.54787   -29.774195     839.7585    30892.154   -1278.2878    358.64391   -919.64384   -1508.1431    806.76386   -1278.2878            0            0            0            0            0   -576.90853   -27.212834 
 1055000     283.3786   -78.187461    848.96927    30556.994   -1316.5917    337.03441   -979.55728   -1544.8356    804.94631   -1316.5917            0            0            0            0            0   -576.70239   -27.511314 
 1060000    325.79723   -78.073135    846.95051    30629.828   -1314.2485    387.48473    -926.7638   -1538.4893    801.27374   -1314.2485            0            0            0            0            0   -577.03293   -27.445895 
 1065000    329.04213   -12.192183    821.73432    31569.752   -1251.1071    391.34402   -859.76309   -1473.3128    799.29572   -1251.1071            0            0            0            0            0   -577.09003    -26.62875 
 1070000    303.42276      359.955    839.79928    30890.654    -1284.344     360.8738   -923.47016   -1512.3492    804.97127    -1284.344            0            0            0            0            0   -576.96605   -27.214155 
 1075000    310.76945   -223.26607    826.44798    31389.693   -1266.8886    369.61153   -897.27707   -1488.8847    799.12372   -1266.8886            0            0            0            0            0    -577.1276   -26.781499 
 1080000    318.14615    222.52774    850.11226    30515.909   -1310.6697    378.38497   -932.28476   -1539.8862    806.15592   -1310.6697            0            0            0            0            0   -576.93945   -27.548353 
 1085000    322.96156    163.38436    839.77553    30891.527   -1280.2637    384.11214   -896.15153   -1501.5191    798.07306   -1280.2637            0            0            0            0            0   -576.81759   -27.213385 
 1090000    338.08929    28.844929    835.54954    31047.769   -1274.2306     402.1042   -872.12641   -1501.5205    804.07326   -1274.2306            0            0            0            0            0    -576.7834    -27.07644 
 1095000    319.97731   -395.46409    820.07808     31633.51   -1248.1751    380.56284   -867.61226    -1482.857    811.55359   -1248.1751            0            0            0            0            0   -576.87171   -26.575079 
 1100000     335.6092    299.52396    863.25644    30051.266   -1336.0286    399.15452   -936.87406   -1560.4245    801.32751   -1336.0286            0            0            0            0            0   -576.93159   -27.974297 
 1105000    309.76464    142.50778    839.18768    30913.167    -1276.394    368.41648   -907.97753   -1510.7472    811.20852    -1276.394            0            0            0            0            0   -576.85533   -27.194336 
 1110000    343.51473    89.427522     852.0823    30445.356   -1324.9656    408.55691   -916.40868   -1549.5472    801.47395   -1324.9656            0            0            0            0            0   -576.89236   -27.612193 
 1115000    312.61692    477.38194    848.49204     30574.18   -1301.2449    371.80881   -929.43609   -1531.0231    806.48317   -1301.2449            0            0            0            0            0   -576.70498   -27.495849 
 1120000    321.04567    16.276794    839.61185     30897.55   -1287.7793    381.83349   -905.94584   -1514.6978    803.73417   -1287.7793            0            0            0            0            0   -576.81569   -27.208081 
 1125000    343.65721   -80.174784    856.32089    30294.658   -1335.5751    408.72637   -926.84873   -1559.8733      801.251   -1335.5751            0            0            0            0            0    -576.9528   -27.749547 
 1130000    315.74509    38.883217    839.45266    30903.409   -1281.7176    375.52927   -906.18834   -1509.4809    804.38737   -1281.7176            0            0            0            0            0   -576.62411   -27.202923 
 1135000    305.91928    9.9830886    829.59025    31270.798   -1256.1677    363.84302   -892.32463   -1486.6986    807.22212   -1256.1677            0            0            0            0            0   -576.69118   -26.883326 
 1140000    311.47407    495.84449    852.30597    30437.366   -1295.8767    370.44956   -925.42709   -1522.6925    803.60835   -1295.8767            0            0            0            0            0   -576.79249   -27.619441 
 1145000    330.32498    63.350143    844.35444    30724.003   -1294.3355    392.86978   -901.46572   -1520.8565    803.09305   -1294.3355            0            0            0            0            0   -576.57209   -27.361767 
 1150000     317.2952     264.1349    851.85813    30453.368   -1312.3489    377.37289   -934.97596   -1537.5576    802.12398   -1312.3489            0            0            0            0            0   -576.91527   -27.604928 
 1155000    323.78987     36.59949    839.91912    30886.246   -1285.9436    385.09729   -900.84631   -1507.2217    798.29483   -1285.9436            0            0            0            0            0   -577.01673   -27.218038 
 1160000    304.80844    237.94786    833.64419     31118.73   -1259.9009    362.52185    -897.3791   -1496.3812    813.28215   -1259.9009            0            0            0            0            0   -576.80192   -27.014696 
 1165000    320.18927   -220.43199    826.65331    31381.897   -1261.3919    380.81494   -880.57692   -1489.0141    804.34815   -1261.3919            0            0            0            0            0   -576.72593   -26.788153 
 1170000    298.08958   -298.17651    833.02318    31141.929   -1272.6646    354.53082   -918.13379   -1509.4457    813.86744   -1272.6646            0            0            0            0            0   -577.08632   -26.994572 
 1175000    318.91256    86.272774    841.85793    30815.115   -1276.9761    379.29649   -897.67965   -1519.2553    819.28741   -1276.9761            0            0            0            0            0   -577.00825   -27.280867 
 1180000    317.03102    482.29538    838.85511    30925.422   -1263.8187    377.05869   -886.76001   -1491.4431    804.32404   -1263.8187            0            0            0            0            0   -576.69964   -27.183559 
 1185000     324.0792    24.810836    844.81339    30707.312   -1296.4888     385.4414   -911.04742   -1531.0078    811.47596   -1296.4888            0            0            0            0            0   -576.95697    -27.37664 
 1190000    318.51463     28.53109     836.0712    31028.397   -1269.4082    378.82321   -890.58502   -1496.6264     803.9671   -1269.4082            0            0            0            0            0   -576.74897   -27.093344 
 1195000    322.31821    128.94317    855.56129    30321.555   -1315.7759    383.34698   -932.42888   -1541.6426    802.99455   -1315.7759            0            0            0            0            0   -577.12781   -27.724931 
 1200000    314.32826    231.75258    831.67676    31192.345    -1260.409    373.84418   -886.56479   -1489.8637    806.44618    -1260.409            0            0            0            0            0   -576.99146    -26.95094 
 1205000    324.63968   -466.27217    843.78888    30744.597   -1320.3561      386.108   -934.24814   -1541.4208    797.76255   -1320.3561            0            0            0            0            0   -576.69786    -27.34344 
 1210000    327.74014    -223.7462    845.98759    30664.692   -1309.3085    389.79551   -919.51296    -1534.088    801.33705   -1309.3085            0            0            0            0            0   -576.55752    -27.41469 
 1215000    328.53729    237.16211    855.00337    30341.341   -1317.8223    390.74359   -927.07871   -1539.0529    798.07231   -1317.8223            0            0            0            0            0   -576.84173   -27.706852 
 1220000    321.77166   -99.088482    839.32296    30908.184    -1293.434    382.69694   -910.73707   -1516.8632     800.3912    -1293.434            0            0            0            0            0   -576.96201   -27.198719 
 1225000    304.37895   -149.92451    858.40674    30221.045   -1344.8429    362.01104   -982.83186   -1570.5604    802.70786   -1344.8429            0            0            0            0            0   -576.99039    -27.81714 
 1230000    315.29846   -339.21436    834.72137    31078.573   -1292.2958    374.99808   -917.29776   -1518.2994    803.11379   -1292.2958            0            0            0            0            0   -577.11023   -27.049602 
 1235000    343.45356   -88.720681    835.33823    31055.622   -1271.6417    408.48416    -863.1575   -1509.1743     814.5104   -1271.6417            0            0            0            0            0   -576.97774   -27.069592 
 1240000    294.37678   -153.11472     825.4023     31429.46   -1250.9119    350.11502   -900.79689   -1483.2751    809.08136   -1250.9119            0            0            0            0            0   -576.71814   -26.747613 
 1245000    333.76208    206.54049    846.76417    30636.569   -1304.6454    396.95766   -907.68778   -1520.5001    793.03986   -1304.6454            0            0            0            0            0    -577.1852   -27.439856 
 1250000    306.14874   -626.47301    816.11096    31787.281   -1247.6962    364.11593   -883.58031   -1478.2118    807.34105   -1247.6962            0            0            0            0            0   -576.82544   -26.446522 
 1255000    310.55535    125.98658    828.67761    31305.237   -1248.9554     369.3569   -879.59849   -1474.5814    802.60682   -1248.9554            0            0            0            0            0   -576.98083   -26.853751 
 1260000    293.82308   -500.48861    818.05065     31711.91   -1258.7105    349.45648   -909.25402   -1481.8149    800.07587   -1258.7105            0            0            0            0            0   -576.97143   -26.509379 
 1265000    324.56476   -444.17293    833.52014    31123.361   -1278.7953    386.01889   -892.77642   -1509.0933    807.00746   -1278.7953            0            0            0            0            0   -576.70947   -27.010676 
 1270000    333.42872    84.647848     855.6724    30317.618   -1330.2932    396.56118   -933.73202   -1554.2716    801.02753   -1330.2932            0            0            0            0            0   -577.04913   -27.728532 
 1275000    306.15023   -125.18936    844.84227    30706.262    -1308.751     364.1177   -944.63333   -1530.0862    798.23486    -1308.751            0            0            0            0            0    -576.8997   -27.377576 
 1280000    316.33716   -120.26285    848.00385    30591.782   -1319.3105    376.23345   -943.07705   -1545.9588    803.40826   -1319.3105            0            0            0            0            0   -576.75992   -27.480029 
 1285000    310.76789    741.37821    860.07358    30162.476   -1296.8121    369.60969   -927.20246   -1530.5738    810.57844   -1296.8121            0            0            0            0            0   -576.81677   -27.871155 
 1290000    317.01577    181.79496    845.47403    30683.318   -1278.8894    377.04055   -901.84886   -1513.2436     811.2032   -1278.8894            0            0            0            0            0   -576.84906   -27.398048 
 1295000    299.73951   -335.34449    841.38891    30832.292   -1296.7083    356.49315   -940.21512   -1527.2694    807.30931   -1296.7083            0            0            0            0            0   -576.74815   -27.265668 
 1300000    311.23787    420.07359    849.01603    30555.311   -1283.3588    370.16865   -913.19014    -1509.759     803.3249   -1283.3588            0            0            0            0            0   -576.92469   -27.512829 
 1305000    309.45479    329.31244    843.90173    30740.485   -1279.6868    368.04795   -911.63885   -1511.4994    808.62819   -1279.6868            0            0            0            0            0   -576.81562   -27.347097 
 1310000    307.60542    171.23858    844.66844    30712.582   -1285.0577    365.84841   -919.20926   -1513.8664    805.62049   -1285.0577            0            0            0            0            0   -576.81175   -27.371943 
 1315000    316.05251   -42.188625    844.10048    30733.247   -1286.0927     375.8949   -910.19783   -1515.0618    805.89554   -1286.0927            0            0            0            0            0   -576.92646   -27.353538 
 1320000     312.6286   -132.80003    817.13964    31747.265   -1235.1567     371.8227   -863.33401   -1469.1958    810.72817   -1235.1567            0            0            0            0            0   -576.68902   -26.479857 
 1325000    323.06188    -132.5572     836.9696     30995.09   -1292.9171    384.23146   -908.68563   -1519.2836    802.84466   -1292.9171            0            0            0            0            0   -576.47812   -27.122458 
 1330000    313.32209    24.628741    843.09916    30769.748   -1289.7389     372.6475   -917.09141   -1520.3537    807.51477   -1289.7389            0            0            0            0            0   -576.89996   -27.321089 
 1335000    324.57597    33.019068    834.58855    31083.518   -1260.6122    386.03223   -874.57996   -1492.7687    809.07258   -1260.6122            0            0            0            0            0   -576.91611   -27.045298 
 1340000    326.05184    199.34096    846.91818    30630.998   -1294.2197    387.78754   -906.43212   -1525.9662     808.4417   -1294.2197            0            0            0            0            0   -576.69516   -27.444847 
 1345000    300.87238    -428.9222    823.54125    31500.485    -1250.285    357.84052   -892.44445   -1482.4886    809.24321    -1250.285            0            0            0            0            0   -577.03958   -26.687305 
 1350000    323.32923   -184.39079    822.44853    31542.337   -1248.3013    384.54942   -863.75185   -1479.6755    808.10009   -1248.3013            0            0            0            0            0   -576.72588   -26.651895 
 1355000    312.67284   -249.99986    823.32015    31508.944   -1250.8137    371.87532   -878.93842   -1478.6985    804.50277   -1250.8137            0            0            0            0            0   -576.61804    -26.68014 
 1360000    315.70234   -183.23338     834.1524    31099.771   -1285.3474    375.47844   -909.86894   -1513.9302    805.38022   -1285.3474            0            0            0            0            0   -576.79737   -27.031165 
 1365000    295.67882   -267.22706    838.33125    30944.747   -1275.6032     351.6636   -923.93956   -1514.9486    816.23449   -1275.6032            0            0            0            0            0   -576.88905   -27.166583 
 1370000    313.91573   -32.350159    844.54932    30716.914   -1308.2335    373.35354   -934.87992   -1525.4114     793.9679   -1308.2335            0            0            0            0            0   -576.78999   -27.368083 
 1375000    317.77113   -450.76989    834.21131    31097.575   -1285.3497    377.93893    -907.4108   -1516.2193    807.78255   -1285.3497            0            0            0            0            0   -576.91297   -27.033074 
 1380000    324.73716    223.87946    855.92685    30308.605   -1322.1065    386.22394   -935.88254   -1544.7798    799.57974   -1322.1065            0            0            0            0            0   -576.90644   -27.736778 
 1385000    301.89675   -214.44397    829.01229    31292.598   -1253.8657    359.05885   -894.80687   -1479.0442    802.18248   -1253.8657            0            0            0            0            0   -577.00397   -26.864597 
 1390000    321.64879    486.46868    845.23406    30692.029   -1285.1169     382.5508   -902.56613   -1513.8608    805.63226   -1285.1169            0            0            0            0            0   -576.88835   -27.390272 
 1395000    319.99241   -167.50865    829.37854     31278.78   -1252.0534     380.5808   -871.47265   -1483.7901    808.85069   -1252.0534            0            0            0            0            0   -577.11401   -26.876465 
 1400000      316.184    442.68163    856.77639    30278.552   -1315.8036     376.0513   -939.75232   -1547.7103    808.90639   -1315.8036            0            0            0            0            0   -576.99972   -27.764308 
 1405000    298.54268     195.7105    854.87491      30345.9   -1314.1712    355.06971   -959.10153   -1545.6697    808.38503   -1314.1712            0            0            0            0            0   -576.88654   -27.702689 
 1410000    343.41885   -77.494105    825.43674    31428.149   -1260.7513    408.44288   -852.30839   -1485.3138    801.33593   -1260.7513            0            0            0            0            0   -576.77338   -26.748729 
 1415000    333.00489    199.92125    848.37971    30578.228   -1310.6234    396.05711   -914.56629    -1536.785    802.84413   -1310.6234            0            0            0            0            0   -576.68255   -27.492209 
 1420000    329.57684    401.93545    848.89849    30559.542   -1280.1406    391.97998   -888.16059   -1521.6533    818.37203   -1280.1406            0            0            0            0            0   -576.85925    -27.50902 
 1425000    322.97247   -463.96927    809.31286    32054.289    -1222.277    384.12512   -838.15187   -1452.1574    806.81161    -1222.277            0            0            0            0            0   -576.93116   -26.226226 
 1430000    287.47099    559.60998    854.59956    30355.678   -1298.8728    341.90167   -956.97113    -1530.157    808.25461   -1298.8728            0            0            0            0            0   -576.97042   -27.693766 
 1435000    316.19588    272.21595    847.02702    30627.061   -1283.7462    376.06542    -907.6808   -1510.1522     803.4326   -1283.7462            0            0            0            0            0   -577.02659   -27.448374 
 1440000    339.02548   -708.08474      842.379    30796.053   -1308.2033    403.21766    -904.9856   -1541.6835    810.50214   -1308.2033            0            0            0            0            0   -577.02189   -27.297752 
 1445000    305.37389    154.48886    827.30058    31357.344    -1245.424    363.19437   -882.22968   -1476.3591    807.73444    -1245.424            0            0            0            0            0   -576.79941   -26.809128 
 1450000    331.17539    453.02312    854.63354     30354.47   -1303.0162     393.8812     -909.135   -1536.9141    810.79469   -1303.0162            0            0            0            0            0   -576.89682   -27.694867 
 1455000    330.75189    92.312604    849.37867    30542.265   -1316.7636    393.37751   -923.38606   -1541.9604     801.7848   -1316.7636            0            0            0            0            0   -576.58797    -27.52458 
 1460000    322.23576    254.93505    828.53326    31310.691   -1238.7097    383.24892   -855.46082   -1470.9536    808.94747   -1238.7097            0            0            0            0            0   -576.70366   -26.849073 
 1465000       337.87    36.125804    825.96831    31407.923   -1241.8929    401.84338   -840.04949   -1472.5513    807.74238   -1241.8929            0            0            0            0            0    -577.0839   -26.765955 
 1470000    325.61832    346.33865    846.84724    30633.563    -1296.565    387.27193   -909.29308   -1518.3833    798.82642    -1296.565            0            0            0            0            0   -577.00814   -27.442548 
 1475000    334.32014   -13.850302    832.50068    31161.474   -1264.3564    397.62139   -866.73497    -1493.771    806.29619   -1264.3564            0            0            0            0            0   -576.88159    -26.97764 
 1480000    324.17275   -139.59939    835.44974    31051.477   -1284.3302    385.55266    -898.7775   -1509.9421    802.63039   -1284.3302            0            0            0            0            0    -577.0185   -27.073206 
 1485000    328.30321   -251.17539    831.21804    31209.559   -1269.1669     390.4652   -878.70173   -1499.0186    806.68992   -1269.1669            0            0            0            0            0   -576.83829   -26.936075 
 1490000    326.62627   -297.91796    836.27914    31020.681   -1278.9803    388.47073   -890.50961    -1508.659    806.69303   -1278.9803            0            0            0            0            0   -577.01441   -27.100083 
 1495000    323.11747   -385.92431    827.07582    31365.865   -1271.0473    384.29757   -886.74974   -1493.7159    799.58481   -1271.0473            0            0            0            0            0    -576.9162   -26.801844 
 1500000     319.9716   -512.00088    843.15371    30767.757   -1319.3214    380.55604    -938.7654    -1539.376    797.04403   -1319.3214            0            0            0            0            0   -576.98943   -27.322857 
 1505000    310.14423   -14.578271    834.55635    31084.718   -1276.6908    368.86793   -907.82286    -1501.776    801.96696   -1276.6908            0            0            0            0            0   -576.88173   -27.044255 
 1510000    315.51413   -100.25439    848.35706    30579.045   -1314.8531    375.25459   -939.59848   -1537.5149    799.71116   -1314.8531            0            0            0            0            0   -577.04937   -27.491474 
 1515000    300.36279   -109.56098    840.06311    30880.952   -1295.0097    357.23445   -937.77529    -1514.965    796.81969   -1295.0097            0            0            0            0            0   -576.86439   -27.222705 
 1520000    301.45557    150.60502    842.32343    30798.085   -1284.9723    358.53414   -926.43813   -1509.4994    801.52553   -1284.9723            0            0            0            0            0   -576.99837   -27.295951 
 1525000    325.76924   -371.30517    838.52686    30937.529   -1294.5056    387.45143   -907.05419   -1524.7527    807.11122   -1294.5056            0            0            0            0            0   -576.86411   -27.172921 
 1530000    333.69516   -242.53909    839.95902    30884.779   -1293.4962    396.87808    -896.6181   -1520.7175    803.99792   -1293.4962            0            0            0            0            0   -576.77655   -27.219331 
 1535000    307.60437   -306.41765    836.70707    31004.816   -1276.9992    365.84717   -911.15207   -1511.2428    811.21898   -1276.9992            0            0            0            0            0    -576.9754    -27.11395 
 1540000    304.33716   -393.27381    824.75411    31454.161   -1259.8006    361.96133   -897.83926   -1491.7564    808.96781   -1259.8006            0            0            0            0            0   -577.01196   -26.726608 
 1545000    297.92116   -14.171131    830.51879    31235.836   -1254.9794    354.33051   -900.64887   -1485.3931    807.38529   -1254.9794            0            0            0            0            0   -576.97157   -26.913416 
 1550000    321.21488   -73.252489    849.84687    30525.439   -1321.1971    382.03474   -939.16241   -1547.2041    802.92864   -1321.1971            0            0            0            0            0   -576.92168   -27.539753 
 1555000    305.00917    -439.7311    842.53033    30790.522   -1303.5695    362.76059   -940.80895   -1537.6856    810.77506   -1303.5695            0            0            0            0            0   -576.65903   -27.302656 
 1560000     325.5167    121.56175    840.19168    30876.227   -1272.1581    387.15108     -885.007   -1500.4411    805.06906   -1272.1581            0            0            0            0            0   -576.78599   -27.226871 
 1565000    318.79747   -84.376333    842.47702     30792.47   -1299.9357     379.1596   -920.77613   -1530.7161    807.66091   -1299.9357            0            0            0            0            0   -576.88054   -27.300929 
 1570000    307.96948   -385.75805     834.8449    31073.974   -1282.8647    366.28141   -916.58325   -1513.3369    807.50684   -1282.8647            0            0            0            0            0   -577.03463   -27.053605 
 1575000    326.45389    610.89062    834.68597    31079.891   -1251.8365    388.26572    -863.5708   -1470.8662    795.73331   -1251.8365            0            0            0            0            0   -576.70363   -27.048455 
 1580000    318.04309    85.044553     825.9577    31408.326    -1246.069    378.26239   -867.80663   -1472.4856    803.49466    -1246.069            0            0            0            0            0   -577.07812   -26.765611 
 1585000    309.93872   -140.96041    826.50448    31387.547   -1248.4095    368.62351   -879.78602   -1480.4246    808.89785   -1248.4095            0            0            0            0            0   -576.88273    -26.78333 
 1590000    315.10347   -155.32673    829.86333    31260.507   -1261.4625    374.76618   -886.69628   -1493.7184    809.16897   -1261.4625            0            0            0            0            0   -576.91299   -26.892175 
 1595000    332.29162   -105.45463    850.75783    30492.753   -1313.1378    395.20878   -917.92897   -1545.8986    809.61589   -1313.1378            0            0            0            0            0   -576.85502   -27.569273 
[...]
 4600000    330.60009    38.658876    825.65317    31419.911   -1244.1524    393.19697   -850.95544   -1474.0382    806.76325   -1244.1524            0            0            0            0            0   -576.87745   -26.755742 
 4605000    327.99995   -102.97917    838.95715    30921.661   -1291.1587    390.10452   -901.05422   -1522.9263    808.76198   -1291.1587            0            0            0            0            0   -576.99437   -27.186865 
 4610000     314.8834   -708.90847    813.79872    31877.598   -1250.4841    374.50443   -875.97965   -1475.6486    802.02063   -1250.4841            0            0            0            0            0    -576.8561   -26.371593 
 4615000    318.47581   -194.64732      825.708    31417.824   -1249.5288    378.77704   -870.75176    -1485.668     813.0746   -1249.5288            0            0            0            0            0   -576.93544   -26.757519 
 4620000    299.24885   -49.325057    826.17628    31400.016   -1252.7406    355.90958   -896.83105   -1480.2797    804.50313   -1252.7406            0            0            0            0            0   -576.96404   -26.772694 
 4625000    338.23831   -108.49693    841.84388    30815.629   -1287.6069    402.28144   -885.32547   -1515.1651    804.55492   -1287.6069            0            0            0            0            0   -576.99673   -27.280411 
 4630000    324.18764   -167.15808    848.83226    30561.926   -1317.6637    385.57037   -932.09336     -1538.47    797.89423   -1317.6637            0            0            0            0            0   -577.08796   -27.506874 
 4635000    311.44498    -288.2201    833.48849    31124.543   -1279.9839    370.41498   -909.56892   -1510.9751    807.82932   -1279.9839            0            0            0            0            0   -576.83807    -27.00965 
 4640000    294.04669   -191.40149    832.85483    31148.224   -1277.8865    349.72244   -928.16404   -1506.4909    805.55276   -1277.8865            0            0            0            0            0   -576.94836   -26.989116 
 4645000    309.51037    -81.41751    841.33958      30834.1   -1296.0789    368.11406   -927.96489    -1519.848    800.68872   -1296.0789            0            0            0            0            0   -576.91971   -27.264069 
 4650000    304.38464   -249.56748    848.73204    30565.535   -1309.7344     362.0178    -947.7166   -1542.7853    809.93601   -1309.7344            0            0            0            0            0   -576.88515   -27.503626 
 4655000    329.77395    -131.3077    833.48423    31124.702   -1276.4144    392.21441   -884.19998   -1506.7355     806.9923   -1276.4144            0            0            0            0            0   -576.67123   -27.009512 
 4660000    310.84191   -83.402241    824.65453    31457.959   -1247.4341    369.69771   -877.73639   -1472.9614    802.55209   -1247.4341            0            0            0            0            0   -577.02484   -26.723381 
 4665000    305.84292    213.51259    833.36299    31129.231   -1254.7138     363.7522   -890.96159   -1488.2453    810.56259   -1254.7138            0            0            0            0            0    -577.0311   -27.005583 
 4670000    328.97861   -21.268357    831.63197    31194.025   -1269.5948    391.26847   -878.32637   -1495.7312    802.73505   -1269.5948            0            0            0            0            0    -576.5987   -26.949489 
 4675000    331.32338    66.525873    840.67088    30858.626   -1283.7769    394.05721    -889.7197   -1512.4324    805.68272   -1283.7769            0            0            0            0            0   -577.02726     -27.2424 
 4680000    315.82472    691.37722     845.0751    30697.803   -1287.2652    375.62399   -911.64123   -1516.2456    805.93505   -1287.2652            0            0            0            0            0   -576.95472   -27.385121 
 4685000    313.59704   -400.07401      839.027    30919.087   -1300.3688    372.97451   -927.39432   -1527.7233    804.12093   -1300.3688            0            0            0            0            0   -576.76642   -27.189129 
 4690000    317.92469    537.03164    850.79232    30491.517    -1284.108    378.12157   -905.98643    -1513.052    806.28261    -1284.108            0            0            0            0            0   -577.33857    -27.57039 
 4695000    339.01446    403.10005    846.89587    30631.804   -1294.3056    403.20455   -891.10103   -1520.4328    803.18931   -1294.3056            0            0            0            0            0   -577.06207   -27.444124 
 4700000    312.35004    32.929267    830.54352    31234.906   -1267.8147     371.4914   -896.32326   -1493.0957    801.97236   -1267.8147            0            0            0            0            0   -576.69137   -26.914217 
 4705000    289.97861   -170.53408    826.09539    31403.091   -1264.9139     344.8841   -920.02981   -1490.5651    802.53536   -1264.9139            0            0            0            0            0   -576.88419   -26.770073 
 4710000    290.80176    428.48721    850.27395    30510.106   -1295.6132     345.8631   -949.75014   -1521.6813     802.6949   -1295.6132            0            0            0            0            0   -576.62683   -27.553592 
 4715000     341.7264    32.874043    849.50468    30537.735   -1299.7592    406.42997   -893.32919   -1529.6927    806.91856   -1299.7592            0            0            0            0            0   -576.98496   -27.528664 
 4720000    325.86486   -130.09588    833.18426    31135.908   -1283.4183    387.56515   -895.85311   -1506.5319      800.109   -1283.4183            0            0            0            0            0   -576.99534   -26.999792 
 4725000    329.84424    224.46608    856.20998    30298.582   -1316.4887    392.29801   -924.19073   -1535.1737    795.79366   -1316.4887            0            0            0            0            0   -577.10866   -27.745953 
 4730000     337.7906    524.88896    854.03652     30375.69   -1306.7787    401.74895   -905.02971   -1534.8799    805.35283   -1306.7787            0            0            0            0            0   -577.25162   -27.675521 
 4735000    315.88325    292.57988    855.14747    30336.228   -1313.7564     375.6936    -938.0628   -1539.6836    802.81383   -1313.7564            0            0            0            0            0   -576.88663   -27.711521 
 4740000    311.50931   -441.03617    845.01817    30699.871   -1307.0139    370.49148   -936.52245   -1535.5312    805.56707   -1307.0139            0            0            0            0            0   -577.04979   -27.383276 
 4745000    338.70267    775.63618    857.82342    30241.595   -1298.3382    402.83373   -895.50443   -1525.6069    804.29922   -1298.3382            0            0            0            0            0   -577.03047   -27.798237 
 4750000    325.72358   -253.62474    833.98297    31106.089    -1276.157    387.39712   -888.75988   -1509.1071    809.86041    -1276.157            0            0            0            0            0   -576.91028   -27.025674 
 4755000    319.33228    -351.5559     835.0893     31064.88   -1282.6101    379.79567   -902.81446   -1512.5174    806.84772   -1282.6101            0            0            0            0            0    -576.9404   -27.061525 
 4760000     342.0722    345.52375    846.08596    30661.126   -1290.4214    406.84125   -883.58012    -1515.047    801.53354   -1290.4214            0            0            0            0            0   -576.90793   -27.417878 
 4765000    303.25054   -437.88843    816.93869    31755.074   -1230.8048    360.66896   -870.13582   -1460.7495    806.94381   -1230.8048            0            0            0            0            0   -576.99905   -26.473345 
 4770000    293.60831    222.38157    842.15362    30804.295   -1289.6823    349.20106   -940.48122   -1513.1249    800.28549   -1289.6823            0            0            0            0            0   -576.84289   -27.290449 
 4775000    308.01337   -79.086923    838.95014    30921.919   -1278.0134    366.33361    -911.6798   -1511.2992    810.52518   -1278.0134            0            0            0            0            0   -577.23939   -27.186638 
 4780000    343.03796    -269.6367    837.08825    30990.697   -1290.6048    407.98987   -882.61489   -1519.0993    805.67661   -1290.6048            0            0            0            0            0   -577.18207   -27.126303 
 4785000    330.17912    515.75058    837.15296    30988.302   -1263.6991    392.69629   -871.00277   -1494.9782    808.21565   -1263.6991            0            0            0            0            0   -576.93656     -27.1284 
 4790000     326.8037    257.45317    832.88825    31146.974   -1256.4801    388.68176   -867.79838   -1479.2203    799.82329   -1256.4801            0            0            0            0            0   -577.08313   -26.990199 
 4795000    330.93922    7.7461256    840.06782    30880.779   -1266.1879    393.60032   -872.58759   -1501.6552    812.44172   -1266.1879            0            0            0            0            0   -576.97444   -27.222857 
 4800000    321.25205   -50.341332    836.75701    31002.966   -1279.3222    382.07895   -897.24326   -1502.1602    799.75043   -1279.3222            0            0            0            0            0   -576.91244   -27.115568 
 4805000    340.77024    338.69148    847.73517    30601.477    -1290.037    405.29277   -884.74422   -1514.9136    801.89898    -1290.037            0            0            0            0            0    -577.0224   -27.471322 
 4810000    296.80478   -275.96546    833.92115    31108.395   -1282.5578    353.00274    -929.5551     -1503.03    797.24138   -1282.5578            0            0            0            0            0    -576.7692   -27.023671 
 4815000    317.43964   -198.92219    821.20668    31590.036   -1233.0312    377.54468   -855.48657   -1471.9814    815.62945   -1233.0312            0            0            0            0            0   -576.67925   -26.611652 
 4820000    323.66625    314.71296    845.10265    30696.802   -1296.7413    384.95026   -911.79103   -1521.4798    801.38054   -1296.7413            0            0            0            0            0   -576.64201   -27.386014 
 4825000    322.05388    -318.8452    835.72323    31041.316   -1285.3506    383.03259   -902.31798   -1515.8555    807.22805   -1285.3506            0            0            0            0            0   -576.72307   -27.082068 
 4830000    341.11128    310.53749    848.15586    30586.299   -1292.2592    405.69839   -886.56083   -1517.3816    801.98595   -1292.2592            0            0            0            0            0   -576.86361   -27.484955 
 4835000     315.9318   -200.81046    815.16565    31824.143   -1217.7131    375.75134   -841.96172   -1452.9586     812.1604   -1217.7131            0            0            0            0            0    -576.9149   -26.415889 
 4840000    302.80603    34.518001    842.70409    30784.173   -1285.5665    360.14029   -925.42621   -1515.7814    807.13557   -1285.5665            0            0            0            0            0   -576.92064   -27.308287 
 4845000    328.04171    57.069394    856.73635    30279.967   -1320.6091    390.15418   -930.45494   -1552.7689    809.01529   -1320.6091            0            0            0            0            0   -576.85546    -27.76301 
 4850000    316.97515    187.21085    837.45449    30977.144   -1276.2792    376.99224   -899.28697   -1501.9791    802.51115   -1276.2792            0            0            0            0            0    -576.8113   -27.138171 
 4855000    317.48144     145.5304    834.39202     31090.84   -1267.8047    377.59439   -890.21034   -1493.1528    802.03037   -1267.8047            0            0            0            0            0   -576.68229    -27.03893 
 4860000    332.23334    202.28264    831.99982    31180.233   -1251.9222    395.13946   -856.78274   -1486.5762     811.4808   -1251.9222            0            0            0            0            0   -576.82683   -26.961409 
 4865000     319.6376   -179.42497    849.94162    30522.036    -1327.889     380.1588   -947.73019    -1550.285    799.28085    -1327.889            0            0            0            0            0   -576.88486   -27.542823 
 4870000    308.67203    517.86426    852.76273    30421.063   -1296.3348    367.11699   -929.21777   -1528.8502    809.39476   -1296.3348            0            0            0            0            0   -576.87933   -27.634243 
 4875000    330.35755   -149.30543    801.94326    32348.858   -1194.9284    392.90851   -802.01986   -1434.7113    816.49945   -1194.9284            0            0            0            0            0   -576.71649    -25.98741 
 4880000    318.06182    150.32601    832.62612     31156.78   -1271.4658    378.28467   -893.18109   -1495.1782    800.53807   -1271.4658            0            0            0            0            0   -576.82561   -26.981705 
 4885000    343.72314   -319.25561     843.7388    30746.421   -1306.8951    408.80478   -898.09029   -1540.8354     811.0509   -1306.8951            0            0            0            0            0   -577.11054   -27.341817 
 4890000    329.50558    171.18676      836.156     31025.25   -1268.1867    391.89522   -876.29147   -1501.6261    810.25852   -1268.1867            0            0            0            0            0   -576.81911   -27.096092 
 4895000    305.96081   -80.239964    830.29216    31244.362   -1256.3837    363.89241   -892.49125   -1485.3183    806.00264   -1256.3837            0            0            0            0            0   -577.06795   -26.906071 
 4900000    321.53529   -225.46848    835.93193    31033.566   -1285.8299    382.41581   -903.41406   -1512.4612    803.38378   -1285.8299            0            0            0            0            0   -576.75243   -27.088831 
 4905000    326.99275   -97.698323    843.32592    30761.474    -1308.265     388.9066   -919.35841   -1530.1511    798.65942    -1308.265            0            0            0            0            0   -576.77335   -27.328438 
 4910000    337.69152   -38.365159    826.88131    31373.243   -1252.3424    401.63112   -850.71128   -1478.3196    802.80228   -1252.3424            0            0            0            0            0   -576.82511   -26.795541 
 4915000     315.2901   -150.89325    844.26016    30727.434   -1304.8278    374.98814   -929.83963    -1530.079     802.2533   -1304.8278            0            0            0            0            0   -577.00211   -27.358712 
 4920000    331.94979   -331.74048    828.63897    31306.696   -1262.1891    394.80223   -867.38687   -1493.2053    807.90915   -1262.1891            0            0            0            0            0   -576.89291   -26.852499 
 4925000    306.33685    564.11278    853.73868    30386.287   -1303.7844    364.33966    -939.4447   -1530.5952    803.49679   -1303.7844            0            0            0            0            0   -576.68591   -27.665869 
 4930000    311.58444    386.24474    836.34058    31018.402   -1264.1993    370.58084   -893.61842   -1492.0326    804.88325   -1264.1993            0            0            0            0            0   -577.04991   -27.102074 
 4935000    331.86546    -288.7427    836.67911    31005.852   -1294.5925    394.70193   -899.89053   -1518.7547    801.04241   -1294.5925            0            0            0            0            0   -576.88022   -27.113044 
 4940000    312.81605    153.07428    847.81524    30598.587   -1279.6528    372.04565   -907.60719   -1515.6154    812.83438   -1279.6528            0            0            0            0            0   -576.87185   -27.473916 
 4945000    312.72599    -299.4478    824.28183    31472.183   -1252.5788    371.93854   -880.64021   -1482.5901    807.02821   -1252.5788            0            0            0            0            0   -577.01685   -26.711303 
 4950000    312.09979    144.66175    838.03271    30955.771   -1273.7122    371.19377    -902.5184   -1503.7048    806.97334   -1273.7122            0            0            0            0            0   -576.98074   -27.156908 
 4955000    331.73863    79.811643    846.67404     30639.83   -1306.1686    394.55109   -911.61751     -1529.17    799.86751   -1306.1686            0            0            0            0            0   -576.86606   -27.436935 
 4960000    330.10455  -0.65014698    832.08222    31177.146   -1260.9418    392.60761   -868.33421   -1489.7517    805.97959   -1260.9418            0            0            0            0            0   -577.16973   -26.964079 
 4965000    302.41205   -129.93889    828.94373    31295.187   -1276.5385    359.67171   -916.86681   -1503.7132    804.19419   -1276.5385            0            0            0            0            0   -577.01952   -26.862375 
 4970000    297.86804    318.11691    849.60142    30534.258   -1290.3366    354.26733   -936.06931   -1515.8401    802.21577   -1290.3366            0            0            0            0            0   -576.71236   -27.531799 
 4975000    322.45801   -240.64111    834.62876    31082.021   -1286.8129    383.51325   -903.29964   -1504.6793    794.54918   -1286.8129            0            0            0            0            0   -576.68278   -27.046601 
 4980000    335.10924   -3.0934911     852.3416    30436.094   -1315.8893     398.5599   -917.32939    -1548.739    809.47317   -1315.8893            0            0            0            0            0   -576.62348   -27.620596 
 4985000    334.36631     390.3818    851.80763    30455.173   -1307.7698     397.6763   -910.09353   -1532.2799    801.33559   -1307.7698            0            0            0            0            0   -576.82551   -27.603292 
 4990000    316.82112    321.67631    857.67831    30246.712   -1313.6279    376.80905   -936.81881   -1544.0521     807.2616   -1313.6279            0            0            0            0            0   -576.83737   -27.793535 
 4995000    337.75734    13.818373    833.73758    31115.245   -1274.6318     401.7094   -872.92241    -1504.788     806.7818   -1274.6318            0            0            0            0            0   -576.62563   -27.017722 
 5000000    328.97249    47.520826    841.62181     30823.76   -1291.8857     391.2612   -900.62446   -1515.6402    800.60343   -1291.8857            0            0            0            0            0   -576.84893   -27.273215 
Loop time of 216491 on 1 procs for 5000000 steps with 2400 atoms

Performance: 1.995 ns/day, 12.027 hours/ns, 23.096 timesteps/s
100.0% CPU use with 1 MPI tasks x 1 OpenMP threads

MPI task timing breakdown:
Section |  min time  |  avg time  |  max time  |%varavg| %total
---------------------------------------------------------------
Pair    | 1.9944e+05 | 1.9944e+05 | 1.9944e+05 |   0.0 | 92.12
Bond    | 9.8784     | 9.8784     | 9.8784     |   0.0 |  0.00
Kspace  | 6749.5     | 6749.5     | 6749.5     |   0.0 |  3.12
Neigh   | 6028.5     | 6028.5     | 6028.5     |   0.0 |  2.78
Comm    | 648.65     | 648.65     | 648.65     |   0.0 |  0.30
Output  | 0.068036   | 0.068036   | 0.068036   |   0.0 |  0.00
Modify  | 3470.6     | 3470.6     | 3470.6     |   0.0 |  1.60
Other   |            | 144.4      |            |       |  0.07

Nlocal:        2400.00 ave        2400 max        2400 min
Histogram: 1 0 0 0 0 0 0 0 0 0
Nghost:        18660.0 ave       18660 max       18660 min
Histogram: 1 0 0 0 0 0 0 0 0 0
Neighs:    1.80076e+06 ave 1.80076e+06 max 1.80076e+06 min
Histogram: 1 0 0 0 0 0 0 0 0 0

Total # of neighbors = 1800756
Ave neighs/atom = 750.31500
Ave special neighs/atom = 8.5000000
Neighbor list builds = 80810
Dangerous builds = 0
Total wall time: 76:08:28
