LAMMPS (29 Sep 2021 - Update 2)
OMP_NUM_THREADS environment is not set. Defaulting to 1 thread. (src/comm.cpp:98)
  using 1 OpenMP thread(s) per MPI task
Reading data file ...
  orthogonal box = (-15.466318 -15.466318 -15.466318) to (15.466318 15.466318 15.466318)
  1 by 1 by 1 MPI processor grid
  reading atoms ...
  2400 atoms
  scanning bonds ...
  3 = max bonds/atom
  scanning angles ...
  3 = max angles/atom
  scanning dihedrals ...
  4 = max dihedrals/atom
  reading bonds ...
  2400 bonds
  reading angles ...
  3600 angles
  reading dihedrals ...
  3600 dihedrals
Finding 1-2 1-3 1-4 neighbors ...
  special bond factors lj:    0        0        0       
  special bond factors coul:  0        0        0       
     3 = max # of 1-2 neighbors
     4 = max # of 1-3 neighbors
     8 = max # of 1-4 neighbors
    10 = max # of special neighbors
  special bonds CPU = 0.001 seconds
  read_data CPU = 0.014 seconds
  200 rigid bodies with 2400 atoms
PPPM initialization ...
  using 12-bit tables for long-range coulomb (src/kspace.cpp:340)
  G vector (1/distance) = 0.1428774
  grid = 6 6 6
  stencil order = 5
  estimated absolute RMS force accuracy = 0.0078609937
  estimated relative force accuracy = 2.3673149e-05
  using double precision FFTW3
  3d grid and FFT values/proc = 1331 216
Neighbor list info ...
  update every 1 steps, delay 10 steps, check yes
  max neighbors/atom: 2000, page size: 100000
  master list distance cutoff = 16.655
  ghost atom cutoff = 16.655
  binsize = 8.3275, bins = 4 4 4
  1 neighbor lists, perpetual/occasional/extra = 1 0 0
  (1) pair lj/cut/coul/long, perpetual
      attributes: half, newton on
      pair build: half/bin/newton
      stencil: half/bin/3d
      bin: standard
Setting up Verlet run ...
  Unit style    : real
  Current step  : 0
  Time step     : 1
Per MPI rank memory allocation (min/avg/max) = 29.12 | 29.12 | 29.12 Mbytes
Step Temp E_pair E_mol TotEng Press 
       0    313.97877     12647.25            0    13020.678    97269.106 
    5000    9363.7012    1873.5797            0    13010.234    78696.072 
Loop time of 200.487 on 1 procs for 5000 steps with 2400 atoms

Performance: 2.155 ns/day, 11.138 hours/ns, 24.939 timesteps/s
100.0% CPU use with 1 MPI tasks x 1 OpenMP threads

MPI task timing breakdown:
Section |  min time  |  avg time  |  max time  |%varavg| %total
---------------------------------------------------------------
Pair    | 167.08     | 167.08     | 167.08     |   0.0 | 83.34
Bond    | 0.004182   | 0.004182   | 0.004182   |   0.0 |  0.00
Kspace  | 5.0139     | 5.0139     | 5.0139     |   0.0 |  2.50
Neigh   | 26.735     | 26.735     | 26.735     |   0.0 | 13.33
Comm    | 0.73999    | 0.73999    | 0.73999    |   0.0 |  0.37
Output  | 3.0871e-05 | 3.0871e-05 | 3.0871e-05 |   0.0 |  0.00
Modify  | 0.80454    | 0.80454    | 0.80454    |   0.0 |  0.40
Other   |            | 0.108      |            |       |  0.05

Nlocal:        2400.00 ave        2400 max        2400 min
Histogram: 1 0 0 0 0 0 0 0 0 0
Nghost:        19022.0 ave       19022 max       19022 min
Histogram: 1 0 0 0 0 0 0 0 0 0
Neighs:    1.88226e+06 ave 1.88226e+06 max 1.88226e+06 min
Histogram: 1 0 0 0 0 0 0 0 0 0

Total # of neighbors = 1882262
Ave neighs/atom = 784.27583
Ave special neighs/atom = 8.5000000
Neighbor list builds = 430
Dangerous builds = 62
  create bodies CPU = 0.000 seconds
  200 rigid bodies with 2400 atoms
  3.8930168 = max distance from body owner to body atom
PPPM initialization ...
  using 12-bit tables for long-range coulomb (src/kspace.cpp:340)
  G vector (1/distance) = 0.1428774
  grid = 6 6 6
  stencil order = 5
  estimated absolute RMS force accuracy = 0.0078609937
  estimated relative force accuracy = 2.3673149e-05
  using double precision FFTW3
  3d grid and FFT values/proc = 1331 216
Setting up Verlet run ...
  Unit style    : real
  Current step  : 5000
  Time step     : 1
Per MPI rank memory allocation (min/avg/max) = 37.04 | 37.04 | 37.04 Mbytes
Step Temp E_pair E_mol TotEng Press Volume 
    5000    9363.7012    1873.5797            0    13010.234    85469.153    29597.212 
 1005000     322.6186   -1246.5014            0   -862.79718   -61.475724    31459.695 
Loop time of 34178.6 on 1 procs for 1000000 steps with 2400 atoms

Performance: 2.528 ns/day, 9.494 hours/ns, 29.258 timesteps/s
100.0% CPU use with 1 MPI tasks x 1 OpenMP threads

MPI task timing breakdown:
Section |  min time  |  avg time  |  max time  |%varavg| %total
---------------------------------------------------------------
Pair    | 31491      | 31491      | 31491      |   0.0 | 92.14
Bond    | 1.7171     | 1.7171     | 1.7171     |   0.0 |  0.01
Kspace  | 1017.8     | 1017.8     | 1017.8     |   0.0 |  2.98
Neigh   | 954.42     | 954.42     | 954.42     |   0.0 |  2.79
Comm    | 110.26     | 110.26     | 110.26     |   0.0 |  0.32
Output  | 2.9967e-05 | 2.9967e-05 | 2.9967e-05 |   0.0 |  0.00
Modify  | 576.78     | 576.78     | 576.78     |   0.0 |  1.69
Other   |            | 26.27      |            |       |  0.08

Nlocal:        2400.00 ave        2400 max        2400 min
Histogram: 1 0 0 0 0 0 0 0 0 0
Nghost:        18445.0 ave       18445 max       18445 min
Histogram: 1 0 0 0 0 0 0 0 0 0
Neighs:    1.77060e+06 ave  1.7706e+06 max  1.7706e+06 min
Histogram: 1 0 0 0 0 0 0 0 0 0

Total # of neighbors = 1770602
Ave neighs/atom = 737.75083
Ave special neighs/atom = 8.5000000
Neighbor list builds = 16325
Dangerous builds = 1
PPPM initialization ...
  using 12-bit tables for long-range coulomb (src/kspace.cpp:340)
  G vector (1/distance) = 0.14155314
  grid = 6 6 6
  stencil order = 5
  estimated absolute RMS force accuracy = 0.0082688247
  estimated relative force accuracy = 2.490132e-05
  using double precision FFTW3
  3d grid and FFT values/proc = 1331 216
Setting up Verlet run ...
  Unit style    : real
  Current step  : 0
  Time step     : 1
Per MPI rank memory allocation (min/avg/max) = 37.04 | 37.04 | 37.04 Mbytes
Step Temp Press v_dens Volume PotEng KinEng TotEng E_vdwl E_coul E_pair E_bond E_angle E_dihed E_impro E_mol E_long E_tail 
       0     322.6186   -667.30164    824.60903    31459.695   -1246.5535    383.70424   -862.84928   -1470.9182     797.7275   -1246.5535            0            0            0            0            0   -573.36283   -26.721907 
    5000    319.93819      294.907    846.89477    30631.844   -1284.8199    380.51631   -904.30358   -1509.0539    797.51325   -1284.8199            0            0            0            0            0   -573.27924   -27.444088 
   10000    308.19378    159.65399    830.33724    31242.666   -1240.6785    366.54818   -874.13032   -1484.2903     816.7845   -1240.6785            0            0            0            0            0   -573.17274   -26.907532 
   15000    321.88821     221.7375     833.4681    31125.305   -1255.4836    382.83555   -872.64804   -1487.3098     805.4571   -1255.4836            0            0            0            0            0   -573.63087    -27.00899 
   20000    323.72003   -213.82027     828.6257    31307.198   -1259.2075    385.01422   -874.19332   -1489.5043    803.65161   -1259.2075            0            0            0            0            0   -573.35485   -26.852069 
   25000    291.24133     124.4352     848.6705    30567.751   -1298.4649     346.3859   -952.07898   -1521.7301    796.79254   -1298.4649            0            0            0            0            0   -573.52736   -27.501632 
   30000    311.94103    421.71709    835.43575    31051.997   -1256.9106    371.00495   -885.90561   -1486.1384    802.75338   -1256.9106            0            0            0            0            0   -573.52552   -27.072752 
   35000    313.49711    21.822774    828.12778    31326.022   -1247.1781    372.85566   -874.32244   -1477.7933    804.30257   -1247.1781            0            0            0            0            0    -573.6874   -26.835934 
   40000    317.61054    596.30379    815.95571    31793.329   -1196.8251    377.74794   -819.07713   -1433.3613    810.21587   -1196.8251            0            0            0            0            0   -573.67963   -26.441491 
   45000    315.96429    141.42345    836.30057    31019.886   -1269.6728    375.78999   -893.88278   -1504.0139    807.84586   -1269.6728            0            0            0            0            0    -573.5047   -27.100777 
   50000    306.61208   -457.90558    827.58907    31346.413   -1263.7218    364.66699   -899.05477   -1498.0933    807.95479   -1263.7218            0            0            0            0            0   -573.58325   -26.818477 
   55000     308.1426   -15.104485    845.14317     30695.33   -1300.4204    366.48731   -933.93304    -1525.363     798.4122   -1300.4204            0            0            0            0            0    -573.4696   -27.387327 
   60000    339.74634   -499.79192    831.39435    31202.941   -1294.3144      404.075   -890.23943   -1518.6728    797.51045   -1294.3144            0            0            0            0            0   -573.15212   -26.941789 
   65000    313.02756   -40.748826    823.09684    31517.493   -1253.4682    372.29721   -881.17099   -1483.4083    803.37876   -1253.4682            0            0            0            0            0   -573.43862   -26.672903 
   70000    326.69844    41.296177    833.67955     31117.41   -1264.4062    388.55658   -875.84961   -1486.0977    795.08223   -1264.4062            0            0            0            0            0   -573.39071   -27.015842 
   75000    310.54554    204.49843    839.37022    30906.444   -1275.2383    369.34523   -905.89308   -1498.3136    796.49193   -1275.2383            0            0            0            0            0   -573.41666   -27.200251 
   80000    305.28716   -264.26019    831.47001    31200.101   -1268.5728    363.09121   -905.48155   -1494.9067    799.83143   -1268.5728            0            0            0            0            0   -573.49745    -26.94424 
   85000     316.6629    313.65154    831.00694    31217.487   -1252.8413    376.62087   -876.22047   -1483.5667    804.19567   -1252.8413            0            0            0            0            0   -573.47031   -26.929235 
   90000    328.80805   -129.55091    816.70666    31764.096    -1231.691    391.06562   -840.62535    -1459.709    801.51936    -1231.691            0            0            0            0            0   -573.50134   -26.465826 
   95000    319.52301    246.67254    849.83641    30525.815    -1304.208    380.02252   -924.18548    -1522.661    791.84261    -1304.208            0            0            0            0            0   -573.38964   -27.539414 
  100000    323.16447    -356.0104    839.37879    30906.128   -1299.6037    384.35347   -915.25027   -1527.0037     800.8408   -1299.6037            0            0            0            0            0   -573.44087   -27.200529 
  105000    342.33872    90.480856    823.95428    31484.694   -1228.1091    407.15823   -820.95089   -1460.1357    805.44693   -1228.1091            0            0            0            0            0   -573.42033   -26.700689 
  110000    326.98636    564.50103     856.2029    30298.833   -1299.5212    388.89901   -910.62224   -1526.3691    800.19983   -1299.5212            0            0            0            0            0   -573.35201   -27.745723 
  115000     298.7123    -411.8752    809.71164    32038.503   -1225.2977    355.27144   -870.02631    -1453.031    801.04698   -1225.2977            0            0            0            0            0   -573.31375   -26.239149 
  120000    313.90682    380.36816    829.87348    31260.125   -1246.4016    373.34295   -873.05861   -1481.5253    808.59885   -1246.4016            0            0            0            0            0   -573.47516   -26.892504 
  125000    325.81991    599.72859    844.13569    30731.965      -1276.7     387.5117   -889.18833   -1502.9443    799.66481      -1276.7            0            0            0            0            0   -573.42053   -27.354679 
  130000    306.89944   -172.22478    828.59968    31308.181   -1260.2123    365.00876   -895.20351   -1492.7484    806.21332   -1260.2123            0            0            0            0            0   -573.67721   -26.851226 
  135000    314.83734   -467.86393    823.78729    31491.077   -1263.2733    374.44965    -888.8236   -1490.9142    801.00619   -1263.2733            0            0            0            0            0   -573.36524   -26.695278 
  140000     308.7347   -64.763105    846.84586    30633.613   -1293.4056    367.19152    -926.2141   -1530.9754    811.16145   -1293.4056            0            0            0            0            0   -573.59165   -27.442503 
  145000    303.93487   -425.69542    823.15765    31515.164   -1256.9904    361.48288   -895.50752   -1487.1336    803.68124   -1256.9904            0            0            0            0            0   -573.53805   -26.674874 
  150000    346.79539    389.41196     851.3933    30469.994   -1293.4263    412.45874   -880.96759   -1523.2937    803.41247   -1293.4263            0            0            0            0            0    -573.5451   -27.589866 
  155000    311.69775    138.34052     836.9855    30994.502   -1272.0868     370.7156   -901.37125   -1501.2766    802.64828   -1272.0868            0            0            0            0            0   -573.45851   -27.122973 
  160000    327.83625    126.37758    845.18165    30693.933   -1289.5614    389.90982   -899.65154     -1516.03    799.91919   -1289.5614            0            0            0            0            0   -573.45052   -27.388574 
  165000     328.6156   -201.11629    817.22101    31744.104    -1226.469    390.83673   -835.63227   -1460.3639    807.30628    -1226.469            0            0            0            0            0   -573.41136   -26.482494 
  170000    318.33098    -88.95392    837.41748    30978.513   -1287.5348    378.60479   -908.93001    -1509.549    795.55474   -1287.5348            0            0            0            0            0   -573.54051   -27.136971 
  175000    312.94108    158.95062    833.34615     31129.86   -1248.3698    372.19435   -876.17545   -1481.5794    806.80043   -1248.3698            0            0            0            0            0    -573.5908   -27.005038 
  180000    313.07844    153.07575    850.02829    30518.924   -1298.0271    372.35771   -925.66939   -1526.4634    801.93753   -1298.0271            0            0            0            0            0    -573.5012   -27.545631 
  185000    312.48312    192.16967    828.60807    31307.864   -1253.0344    371.64968   -881.38473   -1481.3644    801.92611   -1253.0344            0            0            0            0            0   -573.59608   -26.851498 
  190000    329.06623    -122.9812    839.53202    30900.487   -1289.4391    391.37268   -898.06645   -1518.1921    802.22063   -1289.4391            0            0            0            0            0   -573.46766   -27.205494 
  195000       325.54     36.31103    827.87547    31335.569   -1251.8627    387.17879    -864.6839   -1478.3758    799.99429   -1251.8627            0            0            0            0            0   -573.48118   -26.827757 
  200000    330.69953    149.25041    837.29518    30983.038   -1271.9022    393.31524     -878.587    -1506.617    808.26647   -1271.9022            0            0            0            0            0   -573.55169   -27.133008 
  205000    334.18672   -289.70837    823.24044    31511.995   -1253.8988    397.46271   -856.43605   -1480.9989    800.62033   -1253.8988            0            0            0            0            0   -573.52019   -26.677557 
  210000    354.89581    349.03848    839.44409    30903.724   -1275.0968    422.09292   -853.00384   -1492.0263    790.24959   -1275.0968            0            0            0            0            0   -573.32002   -27.202645 
  215000    354.77987    436.36289    855.65357    30318.285   -1304.6832    421.95503   -882.72815   -1530.3406    799.22155   -1304.6832            0            0            0            0            0   -573.56415   -27.727922 
  220000     314.4521   -463.68691    825.16527    31438.488   -1265.1927    373.99146   -891.20126   -1488.7827    797.24651   -1265.1927            0            0            0            0            0   -573.65658   -26.739932 
  225000    329.45408    120.32994     850.1782    30513.543   -1296.6664    391.83397   -904.83243   -1535.4859     812.4403   -1296.6664            0            0            0            0            0   -573.62077   -27.550489 
  230000    321.53065    207.17696    843.45592    30756.733   -1282.8816    382.41029   -900.47126    -1517.568    808.10979   -1282.8816            0            0            0            0            0   -573.42333    -27.33265 
  235000    313.45619   -50.989982    824.08769    31479.597   -1259.6757    372.80699   -886.86873   -1485.6274    799.18936   -1259.6757            0            0            0            0            0   -573.23771   -26.705012 
  240000    325.00806   -32.977603    842.04244    30808.362    -1283.517    386.54613    -896.9709   -1513.3442    803.34685    -1283.517            0            0            0            0            0   -573.51965   -27.286846 
  245000     322.7236   -324.19007    826.29309    31395.577    -1261.977    383.82912   -878.14783   -1490.9012     802.2033    -1261.977            0            0            0            0            0   -573.27903   -26.776479 
  250000    320.88733    210.13557     829.8799    31259.883   -1247.9569    381.64517   -866.31171    -1477.254    802.65819   -1247.9569            0            0            0            0            0   -573.36107   -26.892712 
  255000    302.65602   -12.934211    824.00133    31482.897   -1247.5201    359.96188   -887.55819   -1474.5973     800.1379   -1247.5201            0            0            0            0            0   -573.06063   -26.702214 
  260000    315.71881    225.87124    836.51963    31011.763   -1259.7716    375.49802   -884.27356   -1496.3691    809.92849   -1259.7716            0            0            0            0            0     -573.331   -27.107876 
  265000     331.9108    162.07937    821.36311     31584.02   -1225.6949    394.75586   -830.93909   -1456.3472    803.89929   -1225.6949            0            0            0            0            0   -573.24706   -26.616721 
  270000    313.83849   -297.89576    841.65854    30822.415   -1306.2653    373.26167   -933.00359   -1533.3406    800.51814   -1306.2653            0            0            0            0            0   -573.44278   -27.274405 
  275000    328.19644   -81.870429     829.7479    31264.856   -1268.7127     390.3382   -878.37447   -1496.4959    801.19921   -1268.7127            0            0            0            0            0     -573.416   -26.888435 
  280000    328.98867    -522.2747     819.4906    31656.188   -1247.3631    391.28045   -856.08268   -1491.9391     817.9073   -1247.3631            0            0            0            0            0   -573.33127   -26.556041 
  285000      300.758    101.88985     840.3382    30870.843   -1272.1042    357.70449   -914.39976   -1503.8606    805.23066   -1272.1042            0            0            0            0            0   -573.47426   -27.231619 
  290000    295.39751    271.89405    827.04948    31366.864   -1239.4066    351.32902   -888.07759    -1466.914    801.12455   -1239.4066            0            0            0            0            0   -573.61716   -26.800991 
  295000    327.47331     -281.662    828.86884    31298.014    -1270.381    389.47815   -880.90287   -1496.0036    799.13036    -1270.381            0            0            0            0            0   -573.50781   -26.859948 
  300000    322.00424   -273.90931    832.50333    31161.375   -1266.8685    382.97355   -883.89494   -1500.5559    807.20341   -1266.8685            0            0            0            0            0   -573.51598   -26.977726 
  305000    321.56366   -297.18615    844.67134    30712.477   -1305.3452    382.44955   -922.89563   -1535.5115    803.69689   -1305.3452            0            0            0            0            0   -573.53059   -27.372037 
  310000    323.78181     533.7606    845.66218    30676.491   -1280.3217     385.0877   -895.23398   -1515.9878    809.00599   -1280.3217            0            0            0            0            0   -573.33984   -27.404145 
  315000    310.45492    2.3409186    841.58132    30825.243   -1282.1863    369.23745   -912.94887   -1509.2043    800.41027   -1282.1863            0            0            0            0            0   -573.39226   -27.271903 
  320000    358.92025    1.4822405    834.07302    31102.731   -1267.7798    426.87936   -840.90042    -1490.302     795.9747   -1267.7798            0            0            0            0            0   -573.45242   -27.028592 
  325000    331.30627   -106.91963    832.64865    31155.937   -1277.8061    394.03687   -883.76927   -1503.2803    798.84251   -1277.8061            0            0            0            0            0   -573.36832   -26.982435 
  330000    317.96727    483.64453    826.96685    31369.998   -1247.0568    378.17222   -868.88457   -1474.9288    801.26927   -1247.0568            0            0            0            0            0   -573.39728   -26.798313 
  335000    341.50159    375.37052    836.17738    31024.456   -1257.4095     406.1626   -851.24685   -1488.3814    804.44048   -1257.4095            0            0            0            0            0   -573.46853   -27.096785 
  340000    311.11443   -247.82101    842.37494    30796.202   -1304.3838    370.02184   -934.36201   -1528.6175    797.60315   -1304.3838            0            0            0            0            0   -573.36946   -27.297621 
  345000    345.34299    366.12408    831.96961    31181.366   -1258.1668    410.73134   -847.43545   -1481.1306    796.30178   -1258.1668            0            0            0            0            0     -573.338    -26.96043 
  350000    321.13915   -11.923082    836.92122    30996.882   -1270.4764    381.94466    -888.5317   -1503.8244    806.89354   -1270.4764            0            0            0            0            0    -573.5455    -27.12089 
  355000    322.38602   -472.90873    815.34356    31817.199    -1249.487    383.42763   -866.05934   -1476.6608    800.62494    -1249.487            0            0            0            0            0   -573.45114   -26.421654 
  360000    324.58705   -131.48005    821.63655    31573.509    -1245.802    386.04541    -859.7566   -1475.9404    803.62397    -1245.802            0            0            0            0            0    -573.4856   -26.625582 
  365000    320.72139    51.176421    827.46584    31351.081   -1254.5192    381.44781   -873.07142   -1472.0181    790.99248   -1254.5192            0            0            0            0            0   -573.49356   -26.814483 
  370000    334.49884    93.561853    847.55525    30607.973     -1306.36    397.83393   -908.52603   -1529.4631    796.42623     -1306.36            0            0            0            0            0   -573.32304   -27.465492 
  375000    353.39115   -271.52703    822.23155    31550.661   -1252.8522    420.30337   -832.54882   -1481.6392    802.27446   -1252.8522            0            0            0            0            0   -573.48742   -26.644863 
  380000    308.54634   -78.983407     829.9695    31256.508   -1255.7611    366.96749   -888.79359    -1486.843    804.21445   -1255.7611            0            0            0            0            0   -573.13253   -26.895616 
  385000    318.01798   -276.00336    825.80978    31413.952   -1268.0563    378.23252   -889.82374   -1493.9841    799.40326   -1268.0563            0            0            0            0            0    -573.4754   -26.760817 
  390000    327.87367    -368.0291    828.20503      31323.1   -1267.4386    389.95432   -877.48424   -1490.6923     796.7547   -1267.4386            0            0            0            0            0   -573.50092   -26.838437 
  395000    342.72417    655.14617    841.40244    30831.796   -1272.7542    407.61666   -865.13752   -1500.1544    800.99332   -1272.7542            0            0            0            0            0    -573.5931   -27.266106 
  400000    357.52174     25.03558     843.5001    30755.122   -1302.7407    425.21605   -877.52467    -1523.262    793.97969   -1302.7407            0            0            0            0            0   -573.45842   -27.334082 
  405000    320.39602   -239.79813    845.69858    30675.171   -1306.3123    381.06083   -925.25151   -1531.7186    798.76077   -1306.3123            0            0            0            0            0   -573.35452   -27.405325 
  410000      320.099   -144.25379    835.23134    31059.597   -1278.2227    380.70757   -897.51515   -1511.4848    806.99831   -1278.2227            0            0            0            0            0   -573.73624   -27.066128 
  415000    331.18919    138.96023     853.0027    30412.505   -1310.9784    393.89762   -917.08078   -1536.9313    799.47592   -1310.9784            0            0            0            0            0   -573.52302   -27.642019 
  420000    321.12012   -39.463882    832.72641    31153.027   -1267.6479    381.92203   -885.72591   -1497.2126     802.8473   -1267.6479            0            0            0            0            0    -573.2826   -26.984955 
  425000    324.77476   -373.77091    822.80217     31528.78   -1251.6673    386.26866   -865.39867    -1480.386    802.14424   -1251.6673            0            0            0            0            0   -573.42556   -26.663354 
  430000     317.4293   -20.806088    828.04198    31329.267   -1250.6268    377.53238    -873.0944   -1477.3794    800.21311   -1250.6268            0            0            0            0            0   -573.46045   -26.833153 
  435000    314.78279    10.045462    837.19997    30986.562   -1267.3625    374.38477   -892.97777   -1503.2527    809.31675   -1267.3625            0            0            0            0            0   -573.42661   -27.129923 
  440000    317.43578    36.592441    820.55413    31615.158   -1223.8636    377.54008   -846.32355   -1449.0339    798.82292   -1223.8636            0            0            0            0            0   -573.65267   -26.590505 
  445000    310.15523    -298.6937    836.20332    31023.494   -1291.6102    368.88102   -922.72923   -1518.3901    800.09383   -1291.6102            0            0            0            0            0   -573.31402   -27.097626 
  450000    295.26765    99.889935    841.69852    30820.951   -1274.3705    351.17457   -923.19588   -1504.2554    803.25013   -1274.3705            0            0            0            0            0   -573.36517   -27.275701 
  455000    325.00122    219.34639    831.31926    31205.759   -1244.3464    386.53799   -857.80841   -1480.3512    809.36018   -1244.3464            0            0            0            0            0   -573.35543   -26.939355 
  460000    335.96621    209.28654     830.1908    31248.176   -1258.1852    399.57913   -858.60603    -1490.931    806.14616   -1258.1852            0            0            0            0            0   -573.40034   -26.902787 
  465000    340.81321    186.37608    824.56092     31461.53   -1251.0722    405.34388   -845.72829   -1475.0894    797.28066   -1251.0722            0            0            0            0            0   -573.26347   -26.720348 
  470000    313.23604   -271.51034    844.83468    30706.539   -1306.8423    372.54516   -934.29715   -1531.8026    798.51783   -1306.8423            0            0            0            0            0   -573.55753    -27.37733 
  475000    320.41311   -393.75693    824.08842    31479.569   -1270.2119    381.08115   -889.13074   -1496.8079    799.97113   -1270.2119            0            0            0            0            0   -573.37514   -26.705036 
  480000    333.43494    34.826311    816.39425    31776.251   -1218.9968    396.56858   -822.42822   -1455.8822    810.11475   -1218.9968            0            0            0            0            0   -573.22934   -26.455702 
  485000    332.30436   -303.23291    827.10548    31364.741   -1265.5107    395.22394   -870.28679   -1490.4319    798.32027   -1265.5107            0            0            0            0            0   -573.39911   -26.802805 
  490000    326.53229    -208.9292    809.12941    32061.557   -1207.5933    388.35896    -819.2343   -1439.5964    805.54416   -1207.5933            0            0            0            0            0   -573.54099   -26.220281 
  495000    326.99297   -41.412035    834.52947    31085.719   -1267.2874    388.90687   -878.38052   -1496.1506    802.37392   -1267.2874            0            0            0            0            0   -573.51068   -27.043384 
  500000     321.4751   -73.663574    825.57324    31422.953   -1248.0222    382.34423   -865.67801   -1482.3561    808.03068   -1248.0222            0            0            0            0            0    -573.6968   -26.753152 
  505000    316.70191   -496.71487    825.31608    31432.744    -1265.458    376.66727   -888.79073   -1487.9402    795.93126    -1265.458            0            0            0            0            0   -573.44909   -26.744819 
  510000    321.71873    115.84637    841.60671    30824.313   -1288.2583    382.63398   -905.62433   -1511.2141    796.47593   -1288.2583            0            0            0            0            0   -573.52016   -27.272726 
  515000     344.1338     404.2635    843.74728    30746.112   -1279.0684     409.2932    -869.7752   -1509.1295    803.34913   -1279.0684            0            0            0            0            0   -573.28799   -27.342092 
  520000    314.78272    231.21354    844.37749    30723.165   -1297.1807    374.38469   -922.79604   -1517.7019     794.1541   -1297.1807            0            0            0            0            0   -573.63289   -27.362514 
  525000     321.1866   -504.71119    823.84605     31488.83   -1252.7986    382.00111   -870.79748   -1475.6974    796.57989   -1252.7986            0            0            0            0            0    -573.6811   -26.697182 
  530000    325.81028   -162.85181    816.66442    31765.739   -1238.6354    387.50024   -851.13519   -1470.3558    805.15453   -1238.6354            0            0            0            0            0   -573.43411   -26.464457 
  535000    321.83238    -337.7533    822.20376    31551.727   -1262.4652    382.76916   -879.69609   -1491.5131    802.44161   -1262.4652            0            0            0            0            0    -573.3938   -26.643963 
  540000    308.68211    122.28941    837.82131    30963.582   -1281.7184    367.12897   -914.58944    -1509.606    801.63455   -1281.7184            0            0            0            0            0   -573.74694   -27.150058 
  545000    331.25951    80.206324    825.83183    31413.113   -1235.3159    393.98125   -841.33461   -1473.5664    811.67741   -1235.3159            0            0            0            0            0    -573.4269   -26.761532 
  550000    312.90095    216.79964    835.85347    31036.479   -1265.4614    372.14663    -893.3148   -1493.0379    801.12703   -1265.4614            0            0            0            0            0   -573.55053   -27.086289 
  555000    316.44963   -112.41801    843.98209    30737.558   -1297.8494    376.36722   -921.48216   -1524.5666    800.19052   -1297.8494            0            0            0            0            0   -573.47326   -27.349701 
  560000    325.88217   -671.48782     815.0396    31829.065   -1243.0166    387.58575   -855.43083   -1468.0158    798.45054   -1243.0166            0            0            0            0            0   -573.45129   -26.411804 
  565000     311.5651   -338.61062    847.79685    30599.251   -1327.8346    370.55784   -957.27674    -1545.875    791.37913   -1327.8346            0            0            0            0            0   -573.33867   -27.473321 
  570000    316.01341    -58.22785    836.58536    31009.327   -1279.1987    375.84841   -903.35027   -1505.9649    800.40321   -1279.1987            0            0            0            0            0   -573.63698   -27.110006 
  575000     320.3681   -260.89846    837.39579    30979.316   -1286.8899    381.02763   -905.86222   -1517.2318    804.04567   -1286.8899            0            0            0            0            0   -573.70368   -27.136269 
  580000    299.87111     357.7781    829.76538    31264.197   -1243.1805    356.64967    -886.5308   -1468.7835    799.38037   -1243.1805            0            0            0            0            0   -573.77731   -26.889001 
  585000    320.18318   0.93007792    834.37134     31091.61   -1267.7023    380.80769    -886.8946   -1496.2991    802.06696   -1267.7023            0            0            0            0            0   -573.47012    -27.03826 
  590000    302.07293   -221.45875     836.5334    31011.253   -1269.6755    359.26839   -910.40711   -1506.8842    810.73248   -1269.6755            0            0            0            0            0    -573.5238   -27.108322 
  595000    290.34346    396.52993    839.37602     30906.23   -1263.6203    345.31803   -918.30224   -1484.4311    794.31254   -1263.6203            0            0            0            0            0   -573.50172   -27.200439 
  600000    320.59852   -560.26098    852.24467    30439.555   -1339.2827    381.30167   -957.98098   -1565.4179    799.60108   -1339.2827            0            0            0            0            0   -573.46586   -27.617455 
  605000    346.34765    22.095438    848.38846    30577.913   -1311.8411    411.92622    -899.9149   -1534.3525    796.02952   -1311.8411            0            0            0            0            0   -573.51811   -27.492492 
  610000    305.26608   -299.31167    829.22491    31284.575   -1263.0956    363.06614   -900.02945    -1490.469    800.83263   -1263.0956            0            0            0            0            0   -573.45919   -26.871487 
  615000    317.26422    391.73648    843.45445    30756.787   -1285.3025    377.33604   -907.96646   -1510.3737    798.74026   -1285.3025            0            0            0            0            0    -573.6691   -27.332603 
  620000    330.89336    278.81039    833.66583    31117.923   -1253.7849    393.54577   -860.23916   -1486.7049    806.38688   -1253.7849            0            0            0            0            0   -573.46694   -27.015397 
  625000    302.58334    154.01589    841.17216    30840.237   -1282.0652    359.87544   -922.18981   -1505.4922    796.96682   -1282.0652            0            0            0            0            0   -573.53983   -27.258644 
  630000    316.60293      187.947    839.32164    30908.233   -1259.9232    376.54954   -883.37365    -1499.011    812.52234   -1259.9232            0            0            0            0            0   -573.43456   -27.198677 
  635000    327.84625   -23.813817    843.08089    30770.415   -1297.7708    389.92171   -907.84905   -1521.2639    796.87274   -1297.7708            0            0            0            0            0   -573.37956   -27.320497 
  640000    322.45452    378.36402     833.3619    31129.271   -1256.5863    383.50909   -873.07725   -1484.2128      801.008   -1256.5863            0            0            0            0            0   -573.38159   -27.005548 
  645000    342.71995    265.86659    830.32343    31243.185    -1251.384    407.61165    -843.7724     -1484.02    806.20135    -1251.384            0            0            0            0            0   -573.56535   -26.907085 
  650000    337.51835    134.41569    827.44247    31351.967   -1241.2378    401.42516   -839.81263   -1475.2927    807.48549   -1241.2378            0            0            0            0            0   -573.43059   -26.813726 
  655000    316.52487    190.25246    839.37803    30906.156   -1273.0672     376.4567   -896.61053   -1502.1618    802.55223   -1273.0672            0            0            0            0            0   -573.45763   -27.200504 
  660000    322.32827    34.365152    847.60784    30606.074   -1297.3416    383.35893   -913.98266   -1528.0668    804.42938   -1297.3416            0            0            0            0            0   -573.70413   -27.467196 
  665000     323.7412    171.15692    825.69684    31418.249   -1236.2633     385.0394   -851.22385   -1462.1733     799.3582   -1236.2633            0            0            0            0            0   -573.44813   -26.757158 
  670000    307.02764   -216.50853     824.8137    31451.889   -1246.7924    365.16124   -881.63115   -1475.1819    801.74736   -1246.7924            0            0            0            0            0    -573.3578   -26.728539 
  675000    318.74765    -162.8475    823.22847    31512.453   -1244.5538    379.10035   -865.45348   -1473.1468    802.24633   -1244.5538            0            0            0            0            0   -573.65337   -26.677169 
  680000    326.96829   -156.03327     844.3815    30723.019   -1310.8619    388.87751   -921.98438   -1531.6288    794.32478   -1310.8619            0            0            0            0            0   -573.55788   -27.362644 
  685000    301.04233    631.55586     841.9361    30812.254   -1270.5851    358.04265   -912.54243    -1497.684    800.60424   -1270.5851            0            0            0            0            0   -573.50532     -27.2834 
  690000    344.91633     245.1544    860.26252    30155.851   -1339.9309     410.2239     -929.707   -1564.4057    798.15378   -1339.9309            0            0            0            0            0     -573.679   -27.877277 
  695000    342.51432   -278.63329    825.48389    31426.354   -1274.2063    407.36708   -866.83919   -1488.0469    787.31024   -1274.2063            0            0            0            0            0   -573.46957   -26.750257 
  700000    293.34484    229.95404    841.30957      30835.2   -1281.1217     348.8877   -932.23397   -1507.4572    799.79132   -1281.1217            0            0            0            0            0   -573.45576   -27.263097 
  705000     324.1828    214.76338    838.53492    30937.231   -1272.9029    385.56462   -887.33828   -1499.8919    800.42926   -1272.9029            0            0            0            0            0   -573.44023   -27.173183 
  710000    302.99899    100.08447     826.6035    31383.787   -1250.7273    360.36979   -890.35753   -1475.4983    798.13151   -1250.7273            0            0            0            0            0   -573.36048   -26.786539 
  715000    307.30085    -222.7088     825.5216    31424.918   -1255.0594    365.48618   -889.57323   -1482.5785    801.02249   -1255.0594            0            0            0            0            0    -573.5034   -26.751479 
  720000    306.38119    234.97371     845.1278    30695.888   -1281.3534    364.39239     -916.961   -1515.5581    807.81086   -1281.3534            0            0            0            0            0   -573.60615   -27.386829 
  725000    319.16963   -473.67527    835.38324    31053.949   -1294.9778    379.60223   -915.37555    -1522.023    800.60378   -1294.9778            0            0            0            0            0   -573.55858   -27.071051 
  730000    354.55754   -386.84145    826.02764    31405.667    -1270.732    421.69061   -849.04143   -1497.0416    799.70042    -1270.732            0            0            0            0            0   -573.39086   -26.767877 
  735000    324.62571   -12.101549    833.73251    31115.434   -1270.7737    386.09139   -884.68229   -1498.9059    801.74672   -1270.7737            0            0            0            0            0   -573.61453   -27.017558 
  740000    296.83998    94.299835    847.46077    30611.386   -1309.9682    353.04461   -956.92364   -1526.0458    789.66648   -1309.9682            0            0            0            0            0   -573.58888    -27.46243 
  745000    331.88581    88.954688    843.37206    30759.791   -1300.0714    394.72614   -905.34525   -1519.8047    793.19947   -1300.0714            0            0            0            0            0   -573.46621   -27.329933 
  750000    313.94233    91.834415    829.52639    31273.205   -1253.3743    373.38518   -879.98907   -1482.7646    802.91209   -1253.3743            0            0            0            0            0   -573.52169   -26.881256 
  755000    327.40379    9.7759801     831.1582    31211.806   -1265.1029    389.39547   -875.70745   -1490.3714    798.84926   -1265.1029            0            0            0            0            0   -573.58082   -26.934136 
  760000    300.16828    191.98546    848.02669    30590.958   -1289.3719     357.0031   -932.36877   -1517.8249    801.82394   -1289.3719            0            0            0            0            0   -573.37087   -27.480769 
  765000    349.37472     692.3935    851.67971    30459.747   -1286.0859    415.52645   -870.55942   -1519.4752     806.7652   -1286.0859            0            0            0            0            0   -573.37584   -27.599147 
  770000    328.72653     142.4575    840.52042     30864.15   -1291.2065    390.96867   -900.23781   -1513.3841    795.59904   -1291.2065            0            0            0            0            0   -573.42138   -27.237524 
  775000    317.55514   -197.41656    825.74369    31416.466   -1250.3647    377.68205   -872.68264   -1478.3514    801.50163   -1250.3647            0            0            0            0            0   -573.51494   -26.758676 
  780000    316.56982    196.00465    837.93026    30959.556   -1274.1673    376.51017   -897.65713   -1501.2443    800.68082   -1274.1673            0            0            0            0            0   -573.60383   -27.153588 
  785000    320.49813   -80.905327    840.31578    30871.667   -1292.6413    381.18227   -911.45905   -1514.9342    795.79299   -1292.6413            0            0            0            0            0   -573.50009   -27.230892 
  790000    340.68549   -336.20242    843.49791    30755.202   -1311.3942    405.19197   -906.20218   -1531.8158    794.19153   -1311.3942            0            0            0            0            0   -573.76993   -27.334011 
  795000    293.77249   -425.65085    802.92725    32309.214   -1208.1988    349.39632   -858.80248   -1442.5564    807.82595   -1208.1988            0            0            0            0            0   -573.46832   -26.019297 
  800000    305.51568   -136.73966     820.0901    31633.047    -1234.275      363.363   -870.91204   -1475.2537    814.38161    -1234.275            0            0            0            0            0   -573.40292   -26.575468 
  805000    314.68323    294.97577    838.41242    30941.751   -1267.7331    374.26636   -893.46675   -1506.1428    811.84485   -1267.7331            0            0            0            0            0   -573.43514   -27.169213 
  810000      319.947   -144.41972    847.18705    30621.276   -1308.9482    380.52679   -928.42141   -1536.8058    801.23913   -1308.9482            0            0            0            0            0   -573.38155    -27.45356 
  815000       309.83   -36.079254    838.36309    30943.572   -1276.0546    368.49421   -907.56037   -1508.3833    805.97485   -1276.0546            0            0            0            0            0    -573.6461   -27.167614 
  820000    288.59412   -52.739491    846.45444    30647.779   -1304.2051    343.23745   -960.96769   -1532.7912    802.06673   -1304.2051            0            0            0            0            0   -573.48072   -27.429819 
  825000     312.5168   -281.90101    838.45758    30940.085   -1290.2131    371.68973   -918.52341   -1517.0134    800.25857   -1290.2131            0            0            0            0            0   -573.45833   -27.170676 
  830000    322.80443   -270.07011    817.47248    31734.339   -1237.4018    383.92525   -853.47651   -1462.1986     798.4809   -1237.4018            0            0            0            0            0    -573.6841   -26.490643 
  835000    315.45056   -285.02912    814.06032    31867.354   -1236.1331    375.17898   -860.95409   -1457.3413    794.81943   -1236.1331            0            0            0            0            0   -573.61116    -26.38007 
  840000    330.33402   -53.965642    842.01768    30809.268    -1287.578    392.88053   -894.69748   -1514.0303    800.02421    -1287.578            0            0            0            0            0   -573.57194   -27.286044 
  845000    333.04787    88.258414    837.27209    30983.893   -1272.0197    396.10822   -875.91144   -1499.7168    801.18347   -1272.0197            0            0            0            0            0   -573.48638    -27.13226 
  850000    317.90081   -133.96969    827.05161    31366.783   -1251.2354    378.09317    -873.1422   -1483.6658    805.85361   -1251.2354            0            0            0            0            0   -573.42322    -26.80106 
  855000    325.44131    11.534334    830.44643    31238.558   -1256.2473    387.06142   -869.18587   -1486.8017    803.91579   -1256.2473            0            0            0            0            0   -573.36137   -26.911071 
  860000    337.17318   -175.37937    834.93576    31070.592   -1264.1495    401.01463   -863.13483   -1494.2274    803.64718   -1264.1495            0            0            0            0            0   -573.56926    -27.05655 
  865000    312.32591   -175.47452    817.05515    31750.548   -1232.5672     371.4627   -861.10446   -1467.0845    808.02078   -1232.5672            0            0            0            0            0   -573.50346   -26.477119 
  870000    317.61712   -368.66149    824.53361    31462.573   -1242.8386    377.75576   -865.08286    -1476.942     807.5267   -1242.8386            0            0            0            0            0   -573.42333   -26.719462 
  875000    318.42161    439.07613    849.61953    30533.607   -1290.2541    378.71258   -911.54148   -1518.0884    801.35885   -1290.2541            0            0            0            0            0   -573.52449   -27.532385 
  880000    314.33318    258.32737    841.22668    30838.238   -1274.2927    373.85003   -900.44266   -1503.5605     802.6566   -1274.2927            0            0            0            0            0   -573.38877   -27.260411 
  885000    321.31561    17.419152    834.77411    31076.609   -1269.8227    382.15454    -887.6682   -1499.9355    803.56477   -1269.8227            0            0            0            0            0   -573.45202   -27.051312 
  890000    295.73221   -87.361669    818.93867    31677.523   -1249.6207     351.7271   -897.89359    -1469.001    792.88448   -1249.6207            0            0            0            0            0   -573.50413   -26.538155 
  895000    323.02075   -58.516304     827.0586    31366.518   -1248.5327    384.18253   -864.35016   -1485.6038      810.545   -1248.5327            0            0            0            0            0    -573.4739   -26.801286 
  900000    311.36358    166.78767     836.4912    31012.817   -1269.4175    370.31816   -899.09932     -1499.08    803.30073   -1269.4175            0            0            0            0            0   -573.63822   -27.106955 
  905000    313.87058   -638.11524    819.95923    31638.096   -1247.7817    373.29985   -874.48182   -1486.3293    811.99137   -1247.7817            0            0            0            0            0   -573.44377   -26.571227 
  910000    323.34167     129.5659    851.41901    30469.074   -1306.1372    384.56422   -921.57295   -1533.3693    800.80747   -1306.1372            0            0            0            0            0   -573.57538   -27.590699 
  915000    319.93661   -240.42957    826.57333    31384.933   -1252.3584    380.51443   -871.84397   -1480.7536    801.60801   -1252.3584            0            0            0            0            0   -573.21285   -26.785561 
  920000     340.3783   -88.004333    847.60772    30606.079    -1299.965    404.82662   -895.13835    -1527.364    800.95731    -1299.965            0            0            0            0            0   -573.55822   -27.467192 
  925000    319.59728    458.87932    858.62326    30213.424   -1327.1453    380.11086    -947.0344   -1547.4541    793.83428   -1327.1453            0            0            0            0            0   -573.52545   -27.824156 
  930000    327.20901   -37.157321    845.36677    30687.211   -1299.6669    389.16382   -910.50304   -1525.5337    799.32989   -1299.6669            0            0            0            0            0   -573.46308   -27.394572 
  935000     333.5348    213.18296    841.82346    30816.376   -1274.8343    396.68735   -878.14699    -1509.608    808.24756   -1274.8343            0            0            0            0            0   -573.47387    -27.27975 
  940000    304.44953    327.67231    841.52072    30827.463   -1265.7995    362.09498   -903.70453   -1499.3894    807.00206   -1265.7995            0            0            0            0            0   -573.41217   -27.269939 
  945000    312.61741   -152.75804    836.93102    30996.519   -1292.9689     371.8094   -921.15954   -1506.2788    786.87075   -1292.9689            0            0            0            0            0   -573.56088   -27.121207 
  950000    331.50024   -155.89121    825.04174    31443.195   -1249.1631    394.26756   -854.89553   -1488.2496    812.53413   -1249.1631            0            0            0            0            0   -573.44762   -26.735929 
  955000    333.72697    66.655636    843.27295    30763.407    -1298.953    396.91591   -902.03705   -1516.2949    790.88486    -1298.953            0            0            0            0            0   -573.54288   -27.326721 
  960000    317.57467    142.98429    846.53918    30644.711   -1303.5464    377.70528   -925.84111   -1524.8638    794.85599   -1303.5464            0            0            0            0            0   -573.53859   -27.432565 
  965000    334.02333    563.79212    838.17109     30950.66   -1264.6308    397.26838   -867.36241    -1501.058    810.16856   -1264.6308            0            0            0            0            0   -573.74134   -27.161393 
  970000    311.14653   -194.88358    837.34906    30981.045   -1285.3647    370.06001   -915.30468   -1514.4839     802.6214   -1285.3647            0            0            0            0            0   -573.50217   -27.134754 
  975000    314.79439   -9.0386584    817.25808    31742.664   -1232.8671    374.39857   -858.46853    -1466.467    806.81114   -1232.8671            0            0            0            0            0   -573.21121   -26.483695 
  980000    329.74102   -381.95879    820.34794    31623.104   -1248.1264    392.17524   -855.95116   -1480.9974    806.08897   -1248.1264            0            0            0            0            0   -573.21801   -26.583824 
  985000    309.04289    250.55094    834.62426    31082.188   -1254.6137    367.55806   -887.05568   -1485.2478    804.18558   -1254.6137            0            0            0            0            0   -573.55155   -27.046456 
  990000    322.07168   -121.32025    841.20911    30838.882   -1290.7469    383.05376   -907.69314   -1511.9735    794.86154   -1290.7469            0            0            0            0            0   -573.63497   -27.259841 
  995000    326.32471    377.68628     853.1167    30408.441   -1301.6911    388.11208   -913.57902   -1533.0587    804.81787   -1301.6911            0            0            0            0            0   -573.45031   -27.645713 
 1000000    326.74236   -171.20398    832.79681    31150.394   -1280.3735    388.60881   -891.76472   -1506.3068     799.3957   -1280.3735            0            0            0            0            0   -573.46248   -26.987236 
 1005000     338.4189   -157.03017    829.66991    31267.795   -1260.4833    402.49622   -857.98711   -1491.9128    804.78737   -1260.4833            0            0            0            0            0   -573.35794   -26.885907 
 1010000    329.12577     353.6624    845.62899    30677.696    -1292.095    391.44349   -900.65152   -1524.1611     805.7019    -1292.095            0            0            0            0            0   -573.63578    -27.40307 
 1015000     329.2171    154.28448    836.99955    30993.982   -1273.3016    391.55212   -881.74947   -1502.0501    802.03166   -1273.3016            0            0            0            0            0   -573.28315   -27.123428 
 1020000    335.17048    -308.6899    837.79504    30964.553   -1287.4653    398.63274   -888.83251   -1509.9981    796.17129   -1287.4653            0            0            0            0            0   -573.63841   -27.149206 
 1025000    304.86041    40.285066     845.7075    30674.848   -1290.4158    362.58366   -927.83211   -1524.9113    807.90385   -1290.4158            0            0            0            0            0   -573.40833   -27.405614 
 1030000    334.12682    160.98539    836.77938    31002.137   -1264.0347    397.39147   -866.64325   -1495.5616    805.19408   -1264.0347            0            0            0            0            0   -573.66715   -27.116293 
 1035000    300.15824    417.00769    843.20827    30765.766   -1270.9082    356.99117   -913.91699   -1497.8952    800.34865   -1270.9082            0            0            0            0            0   -573.36162   -27.324625 
 1040000     320.0904    93.284764    853.34882    30400.169   -1299.6853    380.69734   -918.98799    -1539.921    813.80011   -1299.6853            0            0            0            0            0   -573.56448   -27.653235 
 1045000    308.30581    392.68683    833.88443    31109.765   -1265.5538    366.68143   -898.87238   -1481.7801    789.73129   -1265.5538            0            0            0            0            0   -573.50501   -27.022481 
 1050000    336.30362     312.2761    838.47842    30939.316   -1273.8697    399.98042   -873.88926   -1495.0289    794.68671   -1273.8697            0            0            0            0            0   -573.52746   -27.171352 
 1055000    303.54656    -342.1415    841.63084    30823.429   -1298.2493    361.02104   -937.22823    -1527.859    802.90753   -1298.2493            0            0            0            0            0   -573.29778   -27.273508 
 1060000    317.26517   -426.29349     831.2431    31208.618   -1275.2154    377.33718   -897.87819   -1502.6271    801.13328   -1275.2154            0            0            0            0            0   -573.72155   -26.936887 
 1065000    312.86496    51.968645    827.54956    31347.909   -1260.5491    372.10382   -888.44526   -1484.3283    797.42598   -1260.5491            0            0            0            0            0   -573.64679   -26.817196 
 1070000    331.31218     787.0267    846.53144    30644.991   -1272.9278    394.04389   -878.88394   -1504.2841    804.84873   -1272.9278            0            0            0            0            0   -573.49242   -27.432314 
 1075000    314.98013    328.47364    827.53902    31348.309   -1243.0637    374.61947   -868.44422   -1470.6974    801.21125   -1243.0637            0            0            0            0            0   -573.57757   -26.816855 
 1080000    344.87232    952.52619    866.60983    29934.981   -1321.3426    410.17155   -911.17108    -1542.995    795.19784   -1321.3426            0            0            0            0            0   -573.54549   -28.082966 
 1085000    325.16083    200.53835    839.46263    30903.042   -1275.8845    386.72783   -889.15664   -1499.1022     796.8133   -1275.8845            0            0            0            0            0   -573.59554   -27.203246 
 1090000     301.1722   -200.90032    836.57773     31009.61   -1281.5288    358.19711   -923.33166   -1504.2608    796.21864   -1281.5288            0            0            0            0            0   -573.48661   -27.109759 
 1095000    298.35287    312.43975    851.95258    30449.991   -1309.1605    354.84396   -954.31652   -1538.1775    802.46348   -1309.1605            0            0            0            0            0   -573.44644   -27.607989 
 1100000    321.19901   -13.812317     841.6418    30823.028   -1299.2532    382.01587   -917.23735    -1520.703     794.9206   -1299.2532            0            0            0            0            0   -573.47078   -27.273863 
 1105000    327.45789    -296.2843    836.03752    31029.646   -1283.9047    389.45981   -894.44492   -1512.9858    802.61966   -1283.9047            0            0            0            0            0    -573.5386   -27.092253 
 1110000    316.88028    485.23401    857.50745    30252.739   -1314.0537    376.87941   -937.17433    -1547.679    807.23674   -1314.0537            0            0            0            0            0   -573.61147   -27.787998 
 1115000    343.06423    24.354124    831.75954    31189.241   -1249.8112    408.02111   -841.79005   -1484.0304    807.75583   -1249.8112            0            0            0            0            0   -573.53656   -26.953623 
 1120000     323.0237    282.88185     843.8952    30740.723   -1282.1236    384.18604   -897.93755    -1509.308     800.8044   -1282.1236            0            0            0            0            0      -573.62   -27.346886 
 1125000    331.43464   -325.83699    833.20998    31134.947   -1280.7386    394.18953   -886.54904   -1515.3598    807.95586   -1280.7386            0            0            0            0            0   -573.33467   -27.000625 
 1130000    347.39064    196.14089    833.47518     31125.04   -1263.5852     413.1667   -850.41845   -1490.1538    799.87394   -1263.5852            0            0            0            0            0   -573.30531   -27.009219 
 1135000    302.80159    439.14104    818.54593    31692.722   -1215.7892    360.13502   -855.65419   -1450.3778    807.93876   -1215.7892            0            0            0            0            0   -573.35016   -26.525428 
 1140000     319.1423   -678.91587    823.36261    31507.319   -1265.2701    379.56973   -885.70037      -1502.2    810.33626   -1265.2701            0            0            0            0            0   -573.40633   -26.681516 
 1145000    301.13611    143.91397    839.91829    30886.277   -1288.6394    358.15418    -930.4852   -1508.9127    793.55339   -1288.6394            0            0            0            0            0   -573.28011   -27.218011 
 1150000    330.55982   -54.475714    844.57517    30715.973   -1298.0384    393.14907   -904.88933    -1525.957    801.56376   -1298.0384            0            0            0            0            0   -573.64517    -27.36892 
 1155000    317.89687   -7.4099917    815.57383    31808.216   -1226.6819    378.08849   -848.59344   -1457.0623    803.64024   -1226.6819            0            0            0            0            0   -573.25984   -26.429116 
 1160000    334.84681    911.74937    862.54711    30075.979   -1328.1819    398.24778   -929.93409   -1549.9146    795.04667   -1328.1819            0            0            0            0            0   -573.31396   -27.951311 
 1165000    290.01528    60.796064    839.91908    30886.248   -1288.8859     344.9277   -943.95824   -1509.9421    794.32911   -1288.8859            0            0            0            0            0   -573.27296   -27.218037 
 1170000    316.67037  -0.52666631    828.49956    31311.964   -1246.0651    376.62975   -869.43531    -1480.823    808.26211   -1246.0651            0            0            0            0            0   -573.50416   -26.847981 
 1175000    309.25637    -279.0513    840.16125    30877.345   -1293.6424    367.81197   -925.83046   -1516.3108    796.05853   -1293.6424            0            0            0            0            0   -573.39019   -27.225885 
 1180000    344.80143     263.4756    842.99378    30773.594   -1274.1674    410.08725   -864.08013    -1509.162    808.49406   -1274.1674            0            0            0            0            0   -573.49944   -27.317674 
 1185000    328.72834   -112.88795    846.57434    30643.438   -1300.6975    390.97082    -909.7267   -1533.8083    806.65447   -1300.6975            0            0            0            0            0   -573.54368   -27.433705 
 1190000    329.55277   -338.58238     824.4908    31464.206   -1248.1134    391.95135   -856.16202    -1484.325    809.60532   -1248.1134            0            0            0            0            0   -573.39371   -26.718075 
 1195000    314.17332   -148.15576     829.1589    31287.065   -1245.0404     373.6599   -871.38048   -1481.2617    809.66768   -1245.0404            0            0            0            0            0   -573.44634   -26.869348 
 1200000    305.39057    186.19318    834.03058    31104.314   -1263.1871     363.2142   -899.97293   -1487.3215    797.84301   -1263.1871            0            0            0            0            0   -573.70868   -27.027217 
 1205000    324.04207    46.154966      847.783    30599.751   -1302.2382    385.39724   -916.84101   -1525.0877    796.47187   -1302.2382            0            0            0            0            0   -573.62239   -27.472872 
 1210000    332.90145      413.689    836.01202    31030.593   -1270.6714    395.93408   -874.73736   -1500.0877    802.84618   -1270.6714            0            0            0            0            0   -573.42996   -27.091427 
 1215000    324.78351   -230.88797    825.80205    31414.246   -1249.5806    386.27906    -863.3015   -1485.6914    809.47392   -1249.5806            0            0            0            0            0   -573.36305   -26.760567 
 1220000    297.18969    137.32058    841.53342    30826.997   -1294.7059    353.46054   -941.24538   -1513.7661      792.742   -1294.7059            0            0            0            0            0   -573.68186   -27.270351 
 1225000    339.38357    90.609674    830.23559    31246.491   -1258.4394    403.64354   -854.79587   -1493.4728    808.64666   -1258.4394            0            0            0            0            0   -573.61327   -26.904238 
 1230000    311.89102    283.63261    841.24417    30837.597   -1272.7659    370.94547   -901.82044   -1502.1078    802.94434   -1272.7659            0            0            0            0            0   -573.60241   -27.260977 
 1235000    335.58717    82.353805    844.01565    30736.336    -1288.698    399.12832   -889.56965   -1516.4605    801.13134    -1288.698            0            0            0            0            0    -573.3688   -27.350789 
 1240000    319.64625    46.116889    822.29142    31548.364   -1242.6496     380.1691   -862.48054   -1475.1034    805.95693   -1242.6496            0            0            0            0            0   -573.50318   -26.646803 
 1245000    335.01212   -322.47043    843.32685     30761.44   -1304.6375    398.44439   -906.19307   -1533.1049    801.84516   -1304.6375            0            0            0            0            0   -573.37773   -27.328468 
 1250000    338.93938    268.52493    833.25143    31133.398   -1249.6847    403.11525   -846.56944   -1475.6375    799.24814   -1249.6847            0            0            0            0            0   -573.29529   -27.001968 
 1255000    333.61118    187.56801    821.96652    31560.834   -1234.0636    396.77819    -837.2854   -1466.7611    806.06253   -1234.0636            0            0            0            0            0   -573.36504   -26.636275 
 1260000    325.27882     226.8432    838.81359    30926.953   -1259.1533    386.86815   -872.28511   -1494.1132    808.59485   -1259.1533            0            0            0            0            0   -573.63488   -27.182213 
 1265000      312.091   -132.02398    836.06202    31028.737   -1293.1846    371.18331   -922.00128   -1516.4994    796.59711   -1293.1846            0            0            0            0            0    -573.2823   -27.093047 
 1270000    321.66235   -353.19479    836.30839    31019.596   -1291.2299    382.56694   -908.66292   -1518.0269    800.43137   -1291.2299            0            0            0            0            0   -573.63436   -27.101031 
 1275000    327.20442     112.1792    832.64059    31156.238   -1260.0189    389.15835    -870.8605   -1491.4583     804.9882   -1260.0189            0            0            0            0            0    -573.5488   -26.982174 
 1280000    320.10531   -186.31425    845.38173    30686.668    -1300.148    380.71507   -919.43292   -1532.1527    805.28458    -1300.148            0            0            0            0            0   -573.27986   -27.395057 
 1285000    315.45744     187.9016    848.40135    30577.448   -1296.5672    375.18717   -921.38001   -1518.1773    795.17952   -1296.5672            0            0            0            0            0    -573.5694    -27.49291 
 1290000    344.53504    37.455124    834.63837    31081.663   -1271.6162    409.77041   -861.84579   -1501.0918    802.87392   -1271.6162            0            0            0            0            0   -573.39828   -27.046913 
 1295000    315.50699    82.793356    829.43888    31276.504    -1261.556    375.24609   -886.30992   -1488.2044    800.13585    -1261.556            0            0            0            0            0   -573.48748    -26.87842 
 1300000    320.00525    20.240751     830.9283    31220.442   -1256.3733    380.59608   -875.77726   -1488.9451    806.11987   -1256.3733            0            0            0            0            0   -573.54807   -26.926686 
 1305000    322.51908    542.08684    837.53015    30974.346   -1252.0073    383.58587   -868.42146   -1480.4115    801.91216   -1252.0073            0            0            0            0            0   -573.50799   -27.140623 
 1310000    323.74004    446.45033    850.41364    30505.095   -1291.8176    385.03802   -906.77954   -1522.9422        804.7   -1291.8176            0            0            0            0            0   -573.57533   -27.558119 
 1315000    336.02557   -641.02716    838.82348    30926.589   -1303.6248    399.64973   -903.97507   -1529.7481    799.71883   -1303.6248            0            0            0            0            0   -573.59552   -27.182533 
 1320000    349.24945   -328.62483    821.37256    31583.656   -1252.7353    415.37746   -837.35785   -1477.9304    798.79705   -1252.7353            0            0            0            0            0   -573.60194   -26.617027 
 1325000     315.1504   -11.710388    836.83335    31000.137   -1283.7352    374.82199   -908.91317   -1514.3697    804.02421   -1283.7352            0            0            0            0            0   -573.38968   -27.118042 
 1330000    319.50147    193.64994    844.03706    30735.556   -1286.9416    379.99691    -906.9447   -1514.3362    800.98717   -1286.9416            0            0            0            0            0    -573.5926   -27.351483 
 1335000    299.79015   -399.49561     812.6663    31922.019   -1213.6974    356.55338   -857.14397   -1456.9676    816.74905   -1213.6974            0            0            0            0            0   -573.47881   -26.334896 
 1340000    333.73405    87.621361    830.15649    31249.468   -1248.3277    396.92433   -851.40335   -1477.4841    802.54011   -1248.3277            0            0            0            0            0   -573.38372   -26.901675 
 1345000    318.87038   -283.38035    840.95957    30848.033   -1304.6203    379.24632   -925.37399   -1530.1992    799.00361   -1304.6203            0            0            0            0            0   -573.42477   -27.251755 
 1350000    335.55812    281.37828    824.60236     31459.95   -1240.5043    399.09377   -841.41051   -1459.9965    792.96223   -1240.5043            0            0            0            0            0   -573.47003    -26.72169 
 1355000    316.66627   -156.22084    823.35188     31507.73   -1253.4167    376.62488   -876.79179    -1476.339    796.32383   -1253.4167            0            0            0            0            0   -573.40147   -26.681168 
 1360000    332.45393   -383.93017     838.3944    30942.416   -1289.4469    395.40183   -894.04505   -1519.2485    803.39155   -1289.4469            0            0            0            0            0   -573.58992   -27.168629 
 1365000    324.97002    363.92336    847.94752    30593.814   -1291.3139    386.50089   -904.81305   -1520.3133    802.55857   -1291.3139            0            0            0            0            0   -573.55921   -27.478203 
 1370000    331.09749   -386.36002    827.82415    31337.511   -1277.9288    393.78856    -884.1402   -1504.1403    799.60316   -1277.9288            0            0            0            0            0   -573.39164   -26.826094 
 1375000     305.9087   -17.802573    838.80324    30927.335   -1281.1562    363.83043   -917.32573   -1511.5284    803.93338   -1281.1562            0            0            0            0            0   -573.56118   -27.181878 
 1380000    319.04014   -223.82206    838.17838    30950.391   -1286.9849    379.44823   -907.53664   -1517.6884    803.97088   -1286.9849            0            0            0            0            0   -573.26738   -27.161629 
 1385000     325.6485    -180.3309    832.33453    31167.695   -1271.8828    387.30783   -884.57495   -1495.7542    797.26925   -1271.8828            0            0            0            0            0   -573.39787   -26.972256 
 1390000    322.47226   -84.203558    844.21388    30729.119   -1300.1243    383.53019   -916.59411   -1527.7458    801.28579   -1300.1243            0            0            0            0            0   -573.66431   -27.357213 
 1395000    304.30008    590.89641    852.92791    30415.171   -1282.9542    361.91723   -921.03701   -1515.4093    805.95272   -1282.9542            0            0            0            0            0   -573.49762   -27.639595 
 1400000    320.92866    622.92796     846.5131    30645.655        -1261    381.69432    -879.3057   -1498.7413     811.4336        -1261            0            0            0            0            0   -573.69228    -27.43172 
 1405000    344.90646   -45.881461    831.42462    31201.805   -1259.7229    410.21215    -849.5108   -1494.4755    808.40942   -1259.7229            0            0            0            0            0   -573.65685   -26.942769 
 1410000    324.50842   -276.66379    832.57926    31158.533   -1281.7734    385.95188   -895.82156   -1506.4073    798.22568   -1281.7734            0            0            0            0            0   -573.59179   -26.980186 
 1415000     329.1385   -180.20343    839.20678    30912.463   -1289.1041    391.45865   -897.64541   -1512.5458    796.97695   -1289.1041            0            0            0            0            0   -573.53521   -27.194955 
 1420000    298.85287    323.93204    857.30956    30259.722   -1310.9065    355.43863   -955.46784   -1537.4357    800.13107   -1310.9065            0            0            0            0            0   -573.60187   -27.781585 
 1425000    297.91898    259.06182    837.14522    30988.588   -1269.3518    354.32791   -915.02393   -1494.2999    798.43118   -1269.3518            0            0            0            0            0   -573.48309   -27.128149 
 1430000    321.59114   -83.092949    830.07202    31252.648   -1263.7249    382.48224   -881.24265    -1494.894    804.30672   -1263.7249            0            0            0            0            0   -573.13759   -26.898938 
 1435000    341.05019   -249.40534    839.81968    30889.903   -1293.8396    405.62572   -888.21384   -1525.8994    805.36773   -1293.8396            0            0            0            0            0   -573.30791   -27.214816 
 1440000    327.76708    250.32888    840.52089    30864.133   -1270.6799    389.82755   -880.85235   -1499.7878    802.45319   -1270.6799            0            0            0            0            0   -573.34531   -27.237539 
 1445000    328.59788    245.14154    828.85516    31298.531   -1246.4648    390.81566   -855.64913   -1470.1884    797.29797   -1246.4648            0            0            0            0            0   -573.57437   -26.859505 
 1450000    345.47967   -58.323562    829.73686    31265.272   -1266.5057     410.8939    -855.6118   -1495.5996    802.46783   -1266.5057            0            0            0            0            0   -573.37397   -26.888077 
 1455000    323.68958   -87.908268    828.25167    31321.336    -1271.487    384.97801   -886.50897   -1498.4621    800.62872    -1271.487            0            0            0            0            0    -573.6536   -26.839948 
 1460000    337.31651     322.8171    852.62475    30425.986   -1308.1357     401.1851   -906.95064   -1531.2154    796.62426   -1308.1357            0            0            0            0            0   -573.54459   -27.629771 
 1465000    330.23727   -259.70792    820.22635    31627.792   -1231.0315    392.76546   -838.26605   -1467.1177     809.4638   -1231.0315            0            0            0            0            0   -573.37766   -26.579884 
 1470000     315.7765    207.75752    844.04081     30735.42   -1290.4634    375.56664   -914.89675   -1512.1142    795.14304   -1290.4634            0            0            0            0            0   -573.49219   -27.351604 
 1475000    328.41734   -37.961912    843.59793    30751.556   -1293.1455    390.60094    -902.5446   -1522.2976    802.38869   -1293.1455            0            0            0            0            0   -573.23665   -27.337252 
 1480000    310.38483    238.80202    849.71018    30530.349   -1290.0504    369.15409   -920.89633   -1528.0308    811.31743   -1290.0504            0            0            0            0            0     -573.337   -27.535323 
 1485000    348.83424   -40.512771    820.02963     31635.38   -1233.2147    414.88363   -818.33107   -1465.4727    805.48131   -1233.2147            0            0            0            0            0   -573.22329   -26.573509 
 1490000    308.03751   -273.87938    833.81095    31112.507   -1279.4633    366.36233   -913.10096   -1511.1106    805.18061   -1279.4633            0            0            0            0            0   -573.53331     -27.0201 
 1495000    300.93215    263.68636    843.74711    30746.118    -1299.164     357.9116   -941.25235   -1513.1682    787.58867    -1299.164            0            0            0            0            0   -573.58446   -27.342087 
 1500000    304.13561     139.4005    816.79938     31760.49   -1209.3848    361.72162   -847.66316   -1448.9862    813.15539   -1209.3848            0            0            0            0            0   -573.55399   -26.468831 
 1505000    321.99391   -132.56803    824.72413    31455.304   -1250.5082    382.96127   -867.54696   -1483.4398     806.4473   -1250.5082            0            0            0            0            0   -573.51574   -26.725637 
 1510000    326.12013   -132.17214    832.94574    31144.824   -1278.1282    387.86876   -890.25939   -1504.8747    800.37342   -1278.1282            0            0            0            0            0   -573.62688   -26.992062 
 1515000     350.3769    464.14004    838.94914    30921.956   -1258.4412    416.71838   -841.72277   -1489.8593      804.782   -1258.4412            0            0            0            0            0   -573.36389   -27.186606 
 1520000    327.08636   -302.83009    827.08853    31365.383   -1252.7587    389.01794   -863.74075   -1490.5137    811.38586   -1252.7587            0            0            0            0            0   -573.63084   -26.802256 
 1525000     299.3755   -77.145516    832.05969     31177.99   -1265.7428    356.06022   -909.68263   -1495.1503          803   -1265.7428            0            0            0            0            0   -573.59257   -26.963349 
 1530000    331.69673   -28.167977    821.17001    31591.447   -1249.1486    394.50125   -854.64739     -1470.54    795.08761   -1249.1486            0            0            0            0            0   -573.69628   -26.610463 
 1535000     312.3034    139.53024     843.8106    30743.805   -1286.6135    371.43592   -915.17755   -1512.8332    799.69479   -1286.6135            0            0            0            0            0   -573.47507   -27.344144 
 1540000    329.56319    127.25051    830.64212    31231.198   -1256.2446    391.96374   -864.28088   -1491.0969    808.36053   -1256.2446            0            0            0            0            0   -573.50824   -26.917412 
 1545000    332.29587   -109.87262    837.25221    30984.629   -1283.2501    395.21384   -888.03625   -1514.1641    804.57123   -1283.2501            0            0            0            0            0   -573.65721   -27.131616 
 1550000    335.51399   -252.16485    819.98222    31637.209    -1249.202    399.04128   -850.16068   -1476.3993    800.73425    -1249.202            0            0            0            0            0   -573.53694   -26.571972 
 1555000    313.74948    934.93914    838.99435     30920.29   -1238.9489    373.15582   -865.79312   -1466.9086    801.64534   -1238.9489            0            0            0            0            0   -573.68572   -27.188071 
 1560000    319.40188   -101.62033    828.38159    31316.423   -1248.0843    379.87846   -868.20582     -1477.87    803.43012   -1248.0843            0            0            0            0            0   -573.64439   -26.844158 
 1565000     322.2352   -13.522548    843.63492    30750.207   -1297.5256    383.24825   -914.27732   -1519.2562    795.15099   -1297.5256            0            0            0            0            0   -573.42037   -27.338451 
 1570000    318.37843    285.71643    838.73877    30929.712   -1272.4765    378.66123   -893.81528   -1490.9177    791.87632   -1272.4765            0            0            0            0            0   -573.43512   -27.179789 
 1575000    295.10355    460.18532    832.17791    31173.561   -1249.6084     350.9794   -898.62902   -1475.1975     799.1639   -1249.6084            0            0            0            0            0    -573.5748    -26.96718 
 1580000     333.0533   -566.60867    818.19153     31706.45   -1253.4374    396.11468   -857.32268   -1479.8604    799.77281   -1253.4374            0            0            0            0            0   -573.34977   -26.513944 
 1585000    306.67233    177.63522    835.13255    31063.271   -1270.8738    364.73866   -906.13513   -1498.0898     800.7805   -1270.8738            0            0            0            0            0    -573.5645   -27.062927 
 1590000    303.05434    262.94473    840.76381    30855.215   -1271.4783    360.43562   -911.04271   -1500.7555    803.00308   -1271.4783            0            0            0            0            0   -573.72594   -27.245411 
 1595000    315.68149    21.721317    847.38721    30614.043   -1293.8405    375.45364   -918.38683   -1531.5195    810.92915   -1293.8405            0            0            0            0            0   -573.25011   -27.460046 
[...]
 4600000    335.80644   -65.029791    815.78795    31799.867    -1217.898    399.38911   -818.50886    -1451.397    807.01496    -1217.898            0            0            0            0            0   -573.51591   -26.436055 
 4605000    333.86996   -131.58228    837.15679     30988.16   -1295.8846    397.08596   -898.79864   -1513.9058    791.77846   -1295.8846            0            0            0            0            0   -573.75725   -27.128524 
 4610000    320.94175    76.994599     835.0639    31065.825    -1273.655    381.70989   -891.94513   -1505.6982    805.62481    -1273.655            0            0            0            0            0   -573.58167   -27.060702 
 4615000    358.72603   -266.22337    823.05067    31519.261   -1251.3635    426.64836   -824.71516   -1480.2547    802.27941   -1251.3635            0            0            0            0            0   -573.38824   -26.671407 
 4620000    313.41338    58.344083     817.0924      31749.1    -1232.669    372.75607   -859.91288   -1460.2364    801.07293    -1232.669            0            0            0            0            0   -573.50552   -26.478326 
 4625000    328.38579     149.4406    844.42212    30721.541   -1296.2917    390.56341   -905.72824   -1530.3963    807.59458   -1296.2917            0            0            0            0            0   -573.48995    -27.36396 
 4630000    344.40616    74.261728    852.54503    30428.831    -1309.063    409.61712   -899.44585   -1530.4685    794.98401    -1309.063            0            0            0            0            0   -573.57851   -27.627188 
 4635000    302.36371      460.756    833.61791    31119.711   -1251.9548    359.61423   -892.34058   -1478.8009    800.24328   -1251.9548            0            0            0            0            0   -573.39716   -27.013844 
 4640000    314.16613   -164.99745    830.94799    31219.702   -1263.9511    373.65135   -890.29978   -1492.4603    801.99358   -1263.9511            0            0            0            0            0   -573.48441   -26.927324 
 4645000    334.70491    2.2346483    837.72052    30967.307     -1274.23    398.07901   -876.15103   -1501.3634    800.50291     -1274.23            0            0            0            0            0   -573.36958   -27.146791 
 4650000    305.05884    -165.9596    823.96666    31484.221   -1252.3772    362.81966   -889.55757   -1486.0846    807.21539   -1252.3772            0            0            0            0            0   -573.50806    -26.70109 
 4655000    312.75855    126.20611    839.71611    30893.713   -1271.1396    371.97725   -899.16231   -1501.3383    803.48511   -1271.1396            0            0            0            0            0   -573.28638    -27.21146 
 4660000    321.34334    120.68491    852.66255    30424.637   -1321.3887    382.18752   -939.20123   -1545.3957    797.26667   -1321.3887            0            0            0            0            0   -573.25968   -27.630996 
 4665000    304.00159    95.098682    842.17105    30803.658   -1284.9609    361.56223   -923.39867    -1516.832    805.19765   -1284.9609            0            0            0            0            0   -573.32656   -27.291013 
 4670000    327.84382    280.17088    823.08268    31518.035   -1222.7723    389.91882   -832.85343   -1460.4685    811.03267   -1222.7723            0            0            0            0            0   -573.33644   -26.672444 
 4675000    317.20981    144.52295    853.86114    30381.929    -1319.492    377.27134   -942.22063   -1541.0497    794.88419    -1319.492            0            0            0            0            0   -573.32649   -27.669837 
 4680000    345.28579   -268.84573    825.06153    31442.441   -1265.6396    410.66331   -854.97625   -1489.3836    797.28759   -1265.6396            0            0            0            0            0    -573.5436    -26.73657 
 4685000    296.21602    147.40064    847.70456    30602.582   -1303.2707    352.30251   -950.96817   -1527.0339    797.19055   -1303.2707            0            0            0            0            0   -573.42735    -27.47033 
 4690000    311.30508   -237.65781    848.83637    30561.778   -1328.8547    370.24858   -958.60609   -1550.0073    794.57802   -1328.8547            0            0            0            0            0   -573.42543   -27.507007 
 4695000    328.02473   -115.11571    823.00635    31520.958   -1237.3063    390.13398   -847.17235   -1470.8501    806.99596   -1237.3063            0            0            0            0            0   -573.45224   -26.669971 
 4700000    303.31334    439.02216    851.76141    30456.825   -1301.5052    360.74367   -940.76157   -1534.1587    806.00149   -1301.5052            0            0            0            0            0   -573.34799   -27.601794 
 4705000    303.36035    208.29046    845.20356    30693.137   -1284.9888    360.79957   -924.18925   -1519.7639    808.23356   -1284.9888            0            0            0            0            0   -573.45846   -27.389283 
 4710000    335.47753   -163.60082    834.00091     31105.42   -1274.2226    398.99792   -875.22471   -1504.5109    803.39665   -1274.2226            0            0            0            0            0   -573.10841   -27.026256 
 4715000    328.13066    385.12979    835.18089    31061.473   -1268.3162    390.25997   -878.05626   -1498.1612    803.44883   -1268.3162            0            0            0            0            0   -573.60388   -27.064494 
 4720000    313.53628    221.97354    837.37626    30980.038   -1274.6338    372.90225    -901.7316   -1492.9316    791.88508   -1274.6338            0            0            0            0            0    -573.5873   -27.135636 
 4725000    339.75543    246.73343    819.97138    31637.627   -1230.0669    404.08582   -825.98108   -1457.2702    800.56096   -1230.0669            0            0            0            0            0   -573.35765   -26.571621 
 4730000     327.1979    110.30945    813.76445    31878.941   -1225.9768     389.1506   -836.82622   -1454.6264    802.13727   -1225.9768            0            0            0            0            0   -573.48767   -26.370482 
 4735000    304.22442    7.1597314    828.99754    31293.155   -1262.9177    361.82725   -901.09048   -1492.4955    803.16536   -1262.9177            0            0            0            0            0    -573.5876   -26.864119 
 4740000    343.43121   -124.08086    823.83001    31489.444   -1264.1649    408.45758   -855.70731   -1482.7457    791.95166   -1264.1649            0            0            0            0            0   -573.37085   -26.696662 
 4745000    319.19373    -102.8199     842.0792    30807.018    -1290.031     379.6309   -910.40014   -1524.1055    807.66397    -1290.031            0            0            0            0            0   -573.58947   -27.288037 
 4750000    340.90243    159.78668    827.61711    31345.351   -1240.6823    405.44999   -835.23232   -1474.2654    807.11651   -1240.6823            0            0            0            0            0   -573.53343   -26.819385 
 4755000     321.8905    490.37559      834.846    31073.933   -1263.1415    382.83828   -880.30318   -1483.4253    793.74569   -1263.1415            0            0            0            0            0   -573.46184   -27.053641 
 4760000    318.24522   -272.96843     849.6278     30533.31   -1330.2872    378.50279   -951.78436   -1554.7741    798.05066   -1330.2872            0            0            0            0            0    -573.5637   -27.532653 
 4765000    305.35964   -560.26167     818.8814    31679.739   -1256.0695    363.17742   -892.89205   -1480.8686    798.05968   -1256.0695            0            0            0            0            0   -573.26057     -26.5363 
 4770000     300.8459   -127.44009    821.82665    31566.205    -1245.733    357.80903   -887.92395   -1470.2323    798.02414    -1245.733            0            0            0            0            0    -573.5248   -26.631742 
 4775000    314.90473   -394.35953    835.83743    31037.075   -1289.8482    374.52981   -915.31843   -1514.5295    798.01712   -1289.8482            0            0            0            0            0   -573.33591   -27.085769 
 4780000    334.44957    297.79882    829.76998    31264.024   -1242.1246    397.77533   -844.34932   -1471.2469    802.65148   -1242.1246            0            0            0            0            0   -573.52925    -26.88915 
 4785000    325.39747    43.234837    837.01277    30993.492   -1277.9308    387.00927   -890.92156   -1502.6566    798.35854   -1277.9308            0            0            0            0            0   -573.63282   -27.123856 
 4790000    331.02863    220.12802    848.28204    30581.749    -1302.901    393.70665   -909.19432   -1530.9758    801.65882    -1302.901            0            0            0            0            0   -573.58397   -27.489044 
 4795000    333.10349     856.1344    838.40042    30942.194   -1251.9477    396.17438   -855.77334   -1480.0134    801.73122   -1251.9477            0            0            0            0            0   -573.66553   -27.168824 
 4800000    301.95247    587.58828    844.12816    30732.239   -1283.4636    359.12512   -924.33853   -1517.4994    807.52701   -1283.4636            0            0            0            0            0   -573.49123   -27.354435 
 4805000    331.17311   -379.72217    826.26203    31396.757    -1260.564    393.87849   -866.68554   -1490.2503    803.26208    -1260.564            0            0            0            0            0   -573.57582   -26.775473 
 4810000     352.7683    275.60694    832.08825     31176.92    -1253.054    419.56258   -833.49145   -1481.1888    801.50667    -1253.054            0            0            0            0            0   -573.37191   -26.964275 
 4815000    332.55211    368.17318    843.64618    30749.797   -1279.2394     395.5186   -883.72085   -1503.8201     798.1801   -1279.2394            0            0            0            0            0   -573.59948   -27.338816 
 4820000    323.44718    149.69279    834.84423    31073.999   -1266.3623    384.68971   -881.67261   -1500.6216    807.90132   -1266.3623            0            0            0            0            0   -573.64207   -27.053584 
 4825000    325.20328    136.26011    835.50816    31049.306   -1251.6787    386.77832   -864.90038   -1487.6015    809.40672   -1251.6787            0            0            0            0            0    -573.4839   -27.075099 
 4830000     323.8699    96.255132    816.63369    31766.934   -1219.4119    385.19247   -834.21944   -1448.1656    802.38041   -1219.4119            0            0            0            0            0    -573.6267   -26.463461 
 4835000    337.67832   -61.766271    820.96075    31599.499   -1238.2227    401.61542   -836.60726   -1470.5538    805.84638   -1238.2227            0            0            0            0            0    -573.5153   -26.603682 
 4840000    324.65684   -118.39489    849.40908    30541.172   -1308.8712    386.12841   -922.74277   -1538.4396    803.10171   -1308.8712            0            0            0            0            0   -573.53328   -27.525566 
 4845000    352.49673    33.823597    821.87951    31564.175   -1246.6109     419.2396   -827.37129   -1474.6208    801.56418   -1246.6109            0            0            0            0            0   -573.55428   -26.633455 
 4850000    335.09418     63.50199    830.31173    31243.625   -1264.3758    398.54199   -865.83382   -1496.0817    805.30868   -1264.3758            0            0            0            0            0   -573.60277   -26.906706 
 4855000    329.32443    338.51316    839.88716    30887.422   -1273.3766    391.67978    -881.6968   -1503.6137    803.92524   -1273.3766            0            0            0            0            0   -573.68813   -27.217003 
 4860000    343.28252    400.79826    849.83747    30525.777    -1296.874    408.28074   -888.59325   -1526.3916    802.81393    -1296.874            0            0            0            0            0   -573.29633   -27.539448 
 4865000    329.55818   -669.50483    818.65834     31688.37   -1255.9302    391.95778   -863.97244    -1484.553    801.91974   -1255.9302            0            0            0            0            0   -573.29694   -26.529071 
 4870000    310.04513    383.61769     847.7744    30600.061   -1301.2377    368.75007   -932.48759   -1523.1857    795.41842   -1301.2377            0            0            0            0            0   -573.47042   -27.472593 
 4875000    305.30911   -280.84012    822.70254    31532.598    -1250.455    363.11731   -887.33773   -1480.2692    803.43695    -1250.455            0            0            0            0            0   -573.62282   -26.660126 
 4880000    331.42686    -268.7414    855.53399    30322.522   -1339.6231    394.18029   -945.44277   -1564.4882    798.59789   -1339.6231            0            0            0            0            0   -573.73276   -27.724047 
 4885000    310.64179    159.32945    835.14591    31062.774   -1264.8877    369.45971   -895.42801   -1498.0087    806.46627   -1264.8877            0            0            0            0            0   -573.34525    -27.06336 
 4890000    335.12945   -0.8219772    840.24676    30874.203   -1284.8315    398.58393   -886.24759   -1513.2562    801.63998   -1284.8315            0            0            0            0            0   -573.21533   -27.228656 
 4895000    323.94407   -53.094474    846.92702    30630.678     -1313.04    385.28068   -927.75928   -1535.8849    796.25025     -1313.04            0            0            0            0            0   -573.40534   -27.445133 
 4900000    317.13959   -404.28129    832.46434    31162.835   -1277.6357    377.18782   -900.44792   -1514.0181     809.9358   -1277.6357            0            0            0            0            0   -573.55342   -26.976462 
 4905000    318.72385   -93.547374    825.71319    31417.627   -1252.6838    379.07204   -873.61177   -1477.2776    798.21678   -1252.6838            0            0            0            0            0   -573.62295   -26.757687 
 4910000    327.02374   -82.521151    834.80832    31075.336   -1278.8573    388.94346   -889.91389   -1510.7047    805.33218   -1278.8573            0            0            0            0            0   -573.48478    -27.05242 
 4915000    333.54597    263.29554    832.36491    31166.557   -1254.6919    396.70063   -857.99129   -1488.5683    807.15564   -1254.6919            0            0            0            0            0   -573.27928    -26.97324 
 4920000    311.92021   -270.82347    827.86938    31335.799   -1270.0566    370.98019    -899.0764   -1494.8124    797.99067   -1270.0566            0            0            0            0            0   -573.23485    -26.82756 
 4925000    309.65163    60.769111     843.0547    30771.371   -1288.6203    368.28206   -920.33821   -1519.3236    804.08697   -1288.6203            0            0            0            0            0   -573.38368   -27.319649 
 4930000    313.34713   -298.93353    823.28224    31510.395   -1259.1498    372.67728   -886.47255   -1481.1381    795.57392   -1259.1498            0            0            0            0            0   -573.58563   -26.678911 
 4935000    325.22544   -379.06428    823.46371    31503.451   -1246.7367    386.80467   -859.93198   -1484.8005    811.30612   -1246.7367            0            0            0            0            0    -573.2423   -26.684792 
 4940000    297.70975   -239.45117    838.63608    30933.499   -1288.1935    354.07907   -934.11447   -1510.0262    795.41752   -1288.1935            0            0            0            0            0    -573.5849   -27.176461 
 4945000    303.64474   -203.94671    839.87496     30887.87   -1287.0976    361.13781   -925.95975   -1518.1957    804.57704   -1287.0976            0            0            0            0            0   -573.47892   -27.216607 
 4950000    308.45838    116.04678    836.51369    31011.983   -1271.1753    366.86288   -904.31237   -1501.5839    803.80368   -1271.1753            0            0            0            0            0   -573.39505   -27.107684 
 4955000     333.5677   -387.09811    835.60748    31045.616   -1287.0509    396.72648   -890.32446   -1512.8831    799.27451   -1287.0509            0            0            0            0            0   -573.44239   -27.078317 
 4960000    292.96753    369.96304    850.44675    30503.907   -1294.0019    348.43894     -945.563   -1530.5501    809.71034   -1294.0019            0            0            0            0            0   -573.16219   -27.559192 
 4965000    315.33249   -368.19634    847.11939    30623.722   -1320.1982    375.03855   -945.15961   -1538.0441    791.38039   -1320.1982            0            0            0            0            0   -573.53446   -27.451367 
 4970000    328.21822    261.38383    849.31042     30544.72   -1301.7963    390.36411   -911.43214   -1529.9027    801.53909   -1301.7963            0            0            0            0            0   -573.43263   -27.522369 
 4975000    318.45393    816.05943    846.02707    30663.261   -1264.1776    378.75102   -885.42661   -1493.2621    802.55641   -1264.1776            0            0            0            0            0   -573.47195    -27.41597 
 4980000    330.46261    56.534176    832.36735    31166.466    -1262.076    393.03346   -869.04259   -1492.1826    803.43804    -1262.076            0            0            0            0            0    -573.3315   -26.973319 
 4985000    333.19884   -463.20549    818.54199    31692.875   -1245.7514    396.28778   -849.46357   -1474.8637    802.69163   -1245.7514            0            0            0            0            0    -573.5793   -26.525301 
 4990000    344.00299    68.522217    838.77974    30928.201   -1282.2768    409.13762   -873.13913   -1510.6921     801.9946   -1282.2768            0            0            0            0            0   -573.57925   -27.181116 
 4995000    340.36434    204.65028    835.75996    31039.952   -1281.8975    404.81002    -877.0875   -1505.7963    797.49206   -1281.8975            0            0            0            0            0   -573.59331   -27.083258 
 5000000    341.84972   -187.31639    837.78184     30965.04    -1293.654    406.57665    -887.0774   -1524.8339    804.67598    -1293.654            0            0            0            0            0   -573.49616   -27.148779 
Loop time of 167179 on 1 procs for 5000000 steps with 2400 atoms

Performance: 2.584 ns/day, 9.288 hours/ns, 29.908 timesteps/s
100.0% CPU use with 1 MPI tasks x 1 OpenMP threads

MPI task timing breakdown:
Section |  min time  |  avg time  |  max time  |%varavg| %total
---------------------------------------------------------------
Pair    | 1.5405e+05 | 1.5405e+05 | 1.5405e+05 |   0.0 | 92.15
Bond    | 8.4044     | 8.4044     | 8.4044     |   0.0 |  0.01
Kspace  | 4947.2     | 4947.2     | 4947.2     |   0.0 |  2.96
Neigh   | 4674.7     | 4674.7     | 4674.7     |   0.0 |  2.80
Comm    | 531.52     | 531.52     | 531.52     |   0.0 |  0.32
Output  | 0.061877   | 0.061877   | 0.061877   |   0.0 |  0.00
Modify  | 2836.7     | 2836.7     | 2836.7     |   0.0 |  1.70
Other   |            | 128.3      |            |       |  0.08

Nlocal:        2400.00 ave        2400 max        2400 min
Histogram: 1 0 0 0 0 0 0 0 0 0
Nghost:        18612.0 ave       18612 max       18612 min
Histogram: 1 0 0 0 0 0 0 0 0 0
Neighs:    1.80070e+06 ave  1.8007e+06 max  1.8007e+06 min
Histogram: 1 0 0 0 0 0 0 0 0 0

Total # of neighbors = 1800702
Ave neighs/atom = 750.29250
Ave special neighs/atom = 8.5000000
Neighbor list builds = 81346
Dangerous builds = 0
Total wall time: 55:59:18
