LAMMPS (29 Sep 2021 - Update 2)
OMP_NUM_THREADS environment is not set. Defaulting to 1 thread. (src/comm.cpp:98)
  using 1 OpenMP thread(s) per MPI task
Reading data file ...
  orthogonal box = (-15.466318 -15.466318 -15.466318) to (15.466318 15.466318 15.466318)
  1 by 1 by 1 MPI processor grid
  reading atoms ...
  2400 atoms
  scanning bonds ...
  3 = max bonds/atom
  scanning angles ...
  3 = max angles/atom
  scanning dihedrals ...
  4 = max dihedrals/atom
  reading bonds ...
  2400 bonds
  reading angles ...
  3600 angles
  reading dihedrals ...
  3600 dihedrals
Finding 1-2 1-3 1-4 neighbors ...
  special bond factors lj:    0        0        0       
  special bond factors coul:  0        0        0       
     3 = max # of 1-2 neighbors
     4 = max # of 1-3 neighbors
     8 = max # of 1-4 neighbors
    10 = max # of special neighbors
  special bonds CPU = 0.001 seconds
  read_data CPU = 0.014 seconds
  200 rigid bodies with 2400 atoms
PPPM initialization ...
  using 12-bit tables for long-range coulomb (src/kspace.cpp:340)
  G vector (1/distance) = 0.1428774
  grid = 6 6 6
  stencil order = 5
  estimated absolute RMS force accuracy = 0.0078609937
  estimated relative force accuracy = 2.3673149e-05
  using double precision FFTW3
  3d grid and FFT values/proc = 1331 216
Neighbor list info ...
  update every 1 steps, delay 10 steps, check yes
  max neighbors/atom: 2000, page size: 100000
  master list distance cutoff = 16.655
  ghost atom cutoff = 16.655
  binsize = 8.3275, bins = 4 4 4
  1 neighbor lists, perpetual/occasional/extra = 1 0 0
  (1) pair lj/cut/coul/long, perpetual
      attributes: half, newton on
      pair build: half/bin/newton
      stencil: half/bin/3d
      bin: standard
Setting up Verlet run ...
  Unit style    : real
  Current step  : 0
  Time step     : 1
Per MPI rank memory allocation (min/avg/max) = 29.12 | 29.12 | 29.12 Mbytes
Step Temp E_pair E_mol TotEng Press 
       0    318.13581     12647.25            0    13025.622    97159.686 
    5000    9675.5076    1506.6031            0    13014.102     66030.46 
Loop time of 197.689 on 1 procs for 5000 steps with 2400 atoms

Performance: 2.185 ns/day, 10.983 hours/ns, 25.292 timesteps/s
100.0% CPU use with 1 MPI tasks x 1 OpenMP threads

MPI task timing breakdown:
Section |  min time  |  avg time  |  max time  |%varavg| %total
---------------------------------------------------------------
Pair    | 164.52     | 164.52     | 164.52     |   0.0 | 83.22
Bond    | 0.0043018  | 0.0043018  | 0.0043018  |   0.0 |  0.00
Kspace  | 4.9219     | 4.9219     | 4.9219     |   0.0 |  2.49
Neigh   | 26.568     | 26.568     | 26.568     |   0.0 | 13.44
Comm    | 0.74645    | 0.74645    | 0.74645    |   0.0 |  0.38
Output  | 3.5042e-05 | 3.5042e-05 | 3.5042e-05 |   0.0 |  0.00
Modify  | 0.825      | 0.825      | 0.825      |   0.0 |  0.42
Other   |            | 0.1064     |            |       |  0.05

Nlocal:        2400.00 ave        2400 max        2400 min
Histogram: 1 0 0 0 0 0 0 0 0 0
Nghost:        19116.0 ave       19116 max       19116 min
Histogram: 1 0 0 0 0 0 0 0 0 0
Neighs:    1.88174e+06 ave 1.88174e+06 max 1.88174e+06 min
Histogram: 1 0 0 0 0 0 0 0 0 0

Total # of neighbors = 1881745
Ave neighs/atom = 784.06042
Ave special neighs/atom = 8.5000000
Neighbor list builds = 432
Dangerous builds = 66
  create bodies CPU = 0.000 seconds
  200 rigid bodies with 2400 atoms
  3.8930168 = max distance from body owner to body atom
PPPM initialization ...
  using 12-bit tables for long-range coulomb (src/kspace.cpp:340)
  G vector (1/distance) = 0.1428774
  grid = 6 6 6
  stencil order = 5
  estimated absolute RMS force accuracy = 0.0078609937
  estimated relative force accuracy = 2.3673149e-05
  using double precision FFTW3
  3d grid and FFT values/proc = 1331 216
Setting up Verlet run ...
  Unit style    : real
  Current step  : 5000
  Time step     : 1
Per MPI rank memory allocation (min/avg/max) = 37.13 | 37.13 | 37.13 Mbytes
Step Temp E_pair E_mol TotEng Press Volume 
    5000    9675.5076    1506.6031            0    13014.102     70376.34    29597.212 
 1005000    335.46291   -1224.7977            0   -825.81719    21.196729    31840.752 
Loop time of 33117.7 on 1 procs for 1000000 steps with 2400 atoms

Performance: 2.609 ns/day, 9.199 hours/ns, 30.195 timesteps/s
100.0% CPU use with 1 MPI tasks x 1 OpenMP threads

MPI task timing breakdown:
Section |  min time  |  avg time  |  max time  |%varavg| %total
---------------------------------------------------------------
Pair    | 30502      | 30502      | 30502      |   0.0 | 92.10
Bond    | 1.6945     | 1.6945     | 1.6945     |   0.0 |  0.01
Kspace  | 988.23     | 988.23     | 988.23     |   0.0 |  2.98
Neigh   | 937.24     | 937.24     | 937.24     |   0.0 |  2.83
Comm    | 105.58     | 105.58     | 105.58     |   0.0 |  0.32
Output  | 3.0557e-05 | 3.0557e-05 | 3.0557e-05 |   0.0 |  0.00
Modify  | 557.31     | 557.31     | 557.31     |   0.0 |  1.68
Other   |            | 25.61      |            |       |  0.08

Nlocal:        2400.00 ave        2400 max        2400 min
Histogram: 1 0 0 0 0 0 0 0 0 0
Nghost:        18350.0 ave       18350 max       18350 min
Histogram: 1 0 0 0 0 0 0 0 0 0
Neighs:    1.75320e+06 ave  1.7532e+06 max  1.7532e+06 min
Histogram: 1 0 0 0 0 0 0 0 0 0

Total # of neighbors = 1753201
Ave neighs/atom = 730.50042
Ave special neighs/atom = 8.5000000
Neighbor list builds = 16443
Dangerous builds = 0
PPPM initialization ...
  using 12-bit tables for long-range coulomb (src/kspace.cpp:340)
  G vector (1/distance) = 0.14129137
  grid = 6 6 6
  stencil order = 5
  estimated absolute RMS force accuracy = 0.0083511605
  estimated relative force accuracy = 2.5149272e-05
  using double precision FFTW3
  3d grid and FFT values/proc = 1331 216
Setting up Verlet run ...
  Unit style    : real
  Current step  : 0
  Time step     : 1
Per MPI rank memory allocation (min/avg/max) = 37.13 | 37.13 | 37.13 Mbytes
Step Temp Press v_dens Volume PotEng KinEng TotEng E_vdwl E_coul E_pair E_bond E_angle E_dihed E_impro E_mol E_long E_tail 
       0    335.46291    1477.0529    814.74045    31840.752   -1224.8452    398.98054   -825.86461   -1455.2286    802.45869   -1224.8452            0            0            0            0            0   -572.07525    -26.40211 
    5000    331.78089   -293.30986    823.03137        31520   -1256.4902    394.60135    -861.8888   -1485.7852    801.74575   -1256.4902            0            0            0            0            0   -572.45074   -26.670782 
   10000    351.27917    278.26383    842.84729    30778.943    -1280.207     417.7915   -862.41551   -1509.5403    801.73066    -1280.207            0            0            0            0            0   -572.39741   -27.312927 
   15000    347.59363   -171.80609    830.28977    31244.452    -1264.012    413.40813   -850.60384   -1498.7809    807.21881    -1264.012            0            0            0            0            0    -572.4499   -26.905994 
   20000    317.00512    165.68668    818.45764    31696.141   -1226.2161    377.02788   -849.18817   -1458.8149    805.02062   -1226.2161            0            0            0            0            0   -572.42175   -26.522568 
   25000    304.62749    49.793738    821.14172    31592.535   -1234.5776    362.30664   -872.27095   -1467.5436    805.48456   -1234.5776            0            0            0            0            0   -572.51855   -26.609546 
   30000    343.90562    357.90464    845.80547    30671.294   -1288.1706    409.02181   -879.14883   -1511.9954    796.31241   -1288.1706            0            0            0            0            0   -572.48765   -27.408789 
   35000    312.29635    119.17525    820.33053    31623.776   -1229.3166    371.42755    -857.8891    -1462.523    805.53237   -1229.3166            0            0            0            0            0   -572.32604    -26.58326 
   40000    323.26529     281.5559    828.38933    31316.131   -1240.5912    384.47338    -856.1178   -1477.2045    809.02027   -1240.5912            0            0            0            0            0   -572.40698   -26.844409 
   45000    325.63745    438.57258    842.10334    30806.134   -1277.5579    387.29469   -890.26322   -1507.9106    802.63642   -1277.5579            0            0            0            0            0   -572.28376   -27.288819 
   50000    299.75593    124.43282    831.01817    31217.065   -1257.8747    356.51269   -901.36202   -1486.8667    801.36129   -1257.8747            0            0            0            0            0   -572.36924   -26.929598 
   55000    339.70456   -167.24638     834.3395    31092.797   -1286.0737    404.02531   -882.04842   -1513.0346     799.3723   -1286.0737            0            0            0            0            0    -572.4114   -27.037228 
   60000    303.24082   -311.85174    830.07005    31252.722   -1260.3426    360.65741   -899.68516   -1488.1031    800.47426   -1260.3426            0            0            0            0            0   -572.71378   -26.898874 
   65000    295.74624   -380.91116    815.61944    31806.437   -1234.4979    351.74378    -882.7541   -1462.4482    800.21713   -1234.4979            0            0            0            0            0   -572.26681   -26.430594 
   70000    319.34478   -203.49554    824.33009    31470.341   -1262.9229    379.81054   -883.11235   -1497.9401    807.31196   -1262.9229            0            0            0            0            0   -572.29476   -26.712867 
   75000    321.53008    287.53761    831.62096    31194.438   -1248.5777    382.40962   -866.16803   -1477.3687    800.93188   -1248.5777            0            0            0            0            0   -572.14085   -26.949132 
   80000    309.22791    251.35105    822.38493    31544.776   -1229.5556    367.77811    -861.7775   -1464.2797    807.37395   -1229.5556            0            0            0            0            0   -572.64989   -26.649833 
   85000    312.16513    212.36684    805.68095    32198.786   -1183.8848    371.27147   -812.61336   -1415.7343    804.25219   -1183.8848            0            0            0            0            0   -572.40271   -26.108532 
   90000    328.84278   -126.26401    835.88076    31035.466   -1288.7167    391.10692   -897.60982   -1508.0923    791.67015   -1288.7167            0            0            0            0            0   -572.29461   -27.087173 
   95000    343.11763   -529.36584    821.14761    31592.309   -1262.4396    408.08462   -854.35498   -1489.7394    799.59214   -1262.4396            0            0            0            0            0   -572.29235   -26.609737 
  100000     298.7499   -562.43147    826.59626    31384.062   -1271.6842    355.31616   -916.36803   -1498.4331    799.10922   -1271.6842            0            0            0            0            0   -572.36035   -26.786304 
  105000    318.31721    200.23665    831.55042    31197.084   -1259.2931    378.58841   -880.70469   -1487.7322    800.82117   -1259.2931            0            0            0            0            0   -572.38204   -26.946846 
  110000    348.09385   -70.913735    809.84934    32033.055   -1211.7398    414.00306   -797.73672   -1438.3808    799.08655   -1211.7398            0            0            0            0            0   -572.44558   -26.243611 
  115000    331.64689   -426.11986     816.2979    31780.002   -1241.7412    394.44198   -847.29921   -1467.3458    798.12429   -1241.7412            0            0            0            0            0   -572.51969    -26.45258 
  120000     360.7912    210.69364    825.02913    31443.676   -1236.3206    429.10456   -807.21599   -1466.8995    803.09471   -1236.3206            0            0            0            0            0   -572.51578    -26.73552 
  125000    320.34543   -322.33155    835.75089    31040.288   -1280.1249    381.00067    -899.1242   -1508.2394    800.55599   -1280.1249            0            0            0            0            0   -572.44146   -27.082965 
  130000    326.10971    678.37734    830.71603     31228.42   -1235.1071    387.85636   -847.25075   -1457.9619    795.26476   -1235.1071            0            0            0            0            0   -572.40994   -26.919807 
  135000    308.82915    34.137192    832.27821    31169.804   -1255.0884    367.30386   -887.78456   -1489.3294    806.70143   -1255.0884            0            0            0            0            0   -572.46041   -26.970431 
  140000    318.65237   -112.35695    816.88996    31756.968   -1230.5961    378.98704   -851.60901   -1473.7314    815.24963   -1230.5961            0            0            0            0            0   -572.11424   -26.471766 
  145000    334.15114    412.82754    846.34234    30651.838    -1285.452    397.42039   -888.03166   -1515.2427    802.27964    -1285.452            0            0            0            0            0   -572.48903   -27.426186 
  150000    320.77958    197.07316    822.75887    31530.439   -1219.5928    381.51702   -838.07576   -1454.4339    807.37449   -1219.5928            0            0            0            0            0   -572.53341   -26.661951 
  155000    321.85412     325.0929    827.71472    31341.654   -1245.4462    382.79501    -862.6512   -1470.0912    796.92638   -1245.4462            0            0            0            0            0   -572.28136   -26.822548 
  160000    326.58198   -486.87317    814.73329    31841.032    -1244.849    388.41806    -856.4309   -1472.8632    800.48264    -1244.849            0            0            0            0            0   -572.46836   -26.401878 
  165000    329.04112    150.20797    829.35062    31279.833   -1248.4766    391.34282   -857.13382   -1475.1455    799.08079   -1248.4766            0            0            0            0            0   -572.41194    -26.87556 
  170000    323.49108    224.28264    845.40294    30685.898   -1290.6961    384.74192    -905.9542   -1522.7611    804.34831   -1290.6961            0            0            0            0            0   -572.28332   -27.395745 
  175000    302.70984    55.536518    820.43699    31619.672   -1228.1075    360.02589   -868.08161   -1457.2959    801.66955   -1228.1075            0            0            0            0            0   -572.48117   -26.586709 
  180000    356.11329   -25.899096    837.76501    30965.663   -1277.9729    423.54092   -854.43199    -1515.382    809.75719   -1277.9729            0            0            0            0            0   -572.34815   -27.148233 
  185000    332.26071   -231.35128    822.19313    31552.135   -1241.9812    395.17202   -846.80919   -1475.3653    805.61096   -1241.9812            0            0            0            0            0   -572.22686   -26.643618 
  190000    326.16284      309.327    851.70503    30458.842   -1308.5928    387.91956   -920.67327   -1535.9164    799.78105   -1308.5928            0            0            0            0            0   -572.45748   -27.599967 
  195000    326.47297    11.191998    830.71952    31228.288   -1257.6649    388.28841   -869.37649   -1489.6215     804.5697   -1257.6649            0            0            0            0            0   -572.61306    -26.91992 
  200000    341.21236   -45.155259    833.81018    31112.535   -1263.8673    405.81861   -858.04868   -1496.3478    804.98462   -1263.8673            0            0            0            0            0   -572.50413   -27.020075 
  205000    330.82253   -13.123748    822.71522    31532.112   -1250.2316    393.46153   -856.77012   -1476.2089    798.32313   -1250.2316            0            0            0            0            0   -572.34583   -26.660537 
  210000    354.08455    -171.2961    834.05961    31103.231   -1270.7841    421.12806   -849.65605   -1496.2526    797.80399   -1270.7841            0            0            0            0            0   -572.33553   -27.028158 
  215000     325.4801    659.03851    849.78538    30527.648   -1280.1805    387.10754   -893.07295    -1509.532    801.82217   -1280.1805            0            0            0            0            0    -572.4707    -27.53776 
  220000    307.67234   -281.81525    821.91748    31562.717   -1242.8186    365.92801   -876.89059   -1477.8035    807.47848   -1242.8186            0            0            0            0            0   -572.49356   -26.634686 
  225000    336.88611    53.311672    819.93963    31638.852   -1229.5394     400.6732   -828.86617    -1461.948    804.85579   -1229.5394            0            0            0            0            0   -572.44719   -26.570592 
  230000    322.14303   -478.33953    822.11665     31555.07   -1248.5763    383.13863   -865.43764   -1483.2784    807.20304   -1248.5763            0            0            0            0            0   -572.50088    -26.64114 
  235000     357.1366    140.13363    844.02886    30735.855   -1290.8249    424.75799   -866.06692   -1520.9616    802.41877   -1290.8249            0            0            0            0            0   -572.28208   -27.351217 
  240000    314.08773   -81.727563    832.74422    31152.361   -1271.6182     373.5581   -898.06011   -1503.0552    803.64459   -1271.6182            0            0            0            0            0   -572.20762   -26.985532 
  245000    331.62458   -242.76229    819.51202    31655.361   -1240.7999    394.41544   -846.38448   -1475.0091     806.4136   -1240.7999            0            0            0            0            0   -572.20444   -26.556735 
  250000    318.26631     336.3121    841.50183    30828.155   -1284.1264    378.52787   -905.59854   -1506.6497    794.70874   -1284.1264            0            0            0            0            0   -572.18541   -27.269327 
  255000    303.20816    213.73697    830.12115    31250.798   -1253.0376    360.61857   -892.41907   -1481.6516    801.22177   -1253.0376            0            0            0            0            0   -572.60777    -26.90053 
  260000    308.87047    29.424812    835.36551    31054.608   -1278.3961    367.35299   -911.04313    -1504.359    798.38629   -1278.3961            0            0            0            0            0   -572.42338   -27.070476 
  265000    300.22016   -93.163488    830.46397    31237.898    -1265.843    357.06481   -908.77821   -1492.1576     798.6772    -1265.843            0            0            0            0            0   -572.36262   -26.911639 
  270000    343.37803    356.50173    825.83026    31413.173   -1228.4525    408.39433   -820.05821   -1456.8651    800.82012   -1228.4525            0            0            0            0            0   -572.40754   -26.761481 
  275000    333.35709    46.062836    831.90253     31183.88    -1249.306    396.47599   -852.83003   -1491.5348    814.67169    -1249.306            0            0            0            0            0   -572.44287   -26.958257 
  280000    305.32144   -168.92464    829.78457    31263.474   -1262.6551    363.13198   -899.52308   -1499.7518    809.30349   -1262.6551            0            0            0            0            0   -572.20672   -26.889623 
  285000    324.18135    994.02266    852.48918    30430.825   -1289.0189    385.56289   -903.45599   -1508.0349    791.47318   -1289.0189            0            0            0            0            0   -572.45715   -27.625378 
  290000    347.55933    287.24204    842.82542    30779.741   -1292.2948    413.36733   -878.92752   -1518.5624     798.5988   -1292.2948            0            0            0            0            0   -572.33122   -27.312219 
  295000    318.38724    12.815524    831.55343    31196.972   -1254.9634    378.67171   -876.29167    -1487.319    804.68255   -1254.9634            0            0            0            0            0   -572.32696   -26.946944 
  300000     343.3638   -527.96708    835.63922    31044.436   -1284.7231    408.37741    -876.3457   -1515.2514    802.84388   -1284.7231            0            0            0            0            0    -572.3156   -27.079346 
  305000    331.72902    104.60965    832.06591    31177.757   -1258.1223    394.53965    -863.5827   -1490.1317    804.36075   -1258.1223            0            0            0            0            0   -572.35144   -26.963551 
  310000    344.65305   -486.61217    818.79392    31683.123   -1236.0267    409.91077   -826.11597   -1471.0487    807.36776   -1236.0267            0            0            0            0            0   -572.34578   -26.533465 
  315000    313.06051    150.92607    846.42565    30648.822   -1296.7228    372.33639   -924.38637   -1523.2263    798.92961   -1296.7228            0            0            0            0            0   -572.42609   -27.428886 
  320000    322.86157    154.62179    824.04781    31481.121   -1227.4752    383.99322   -843.48201   -1461.7663    806.75023   -1227.4752            0            0            0            0            0   -572.45913    -26.70372 
  325000    318.64543    686.38626    840.93526    30848.925     -1248.86    378.97878   -869.88121   -1478.4096    802.13817     -1248.86            0            0            0            0            0   -572.58857   -27.250967 
  330000    339.63171   -199.14855    829.05039     31291.16     -1270.14    403.93867   -866.20136   -1500.8835    803.24812     -1270.14            0            0            0            0            0   -572.50466   -26.865831 
  335000    323.02942   -406.91562    820.20891    31628.465   -1250.7178    384.19285   -866.52498   -1483.0317    804.42905   -1250.7178            0            0            0            0            0   -572.11514   -26.579318 
  340000    320.95971   -245.11826    820.91124    31601.405   -1237.3085    381.73126   -855.57727   -1468.2604    803.52385   -1237.3085            0            0            0            0            0   -572.57198   -26.602078 
  345000    312.35432    193.14449    836.14042    31025.828   -1266.0621    371.49648   -894.56566    -1488.089    794.39109   -1266.0621            0            0            0            0            0   -572.36421   -27.095587 
  350000    326.86465    407.75386    845.35236    30687.734   -1291.8891    388.75425   -903.13481   -1516.4367     796.6998   -1291.8891            0            0            0            0            0   -572.15216   -27.394105 
  355000    316.72982   -55.593547    815.04416    31828.887   -1225.3415    376.70046   -848.64104   -1453.6062     800.8189   -1225.3415            0            0            0            0            0   -572.55419   -26.411952 
  360000    331.40709   -447.56098    821.70108    31571.029   -1257.4867    394.15677   -863.32997    -1486.069     801.0307   -1257.4867            0            0            0            0            0   -572.44842   -26.627673 
  365000     332.5817   -198.72454    831.07885    31214.786   -1274.1939    395.55379   -878.64008   -1507.0563    805.32524   -1274.1939            0            0            0            0            0   -572.46276   -26.931565 
  370000    335.66887   -80.993439    829.61865    31269.727   -1240.8344    399.22549   -841.60888   -1477.2724    808.95307   -1240.8344            0            0            0            0            0   -572.51506   -26.884246 
  375000    326.58936    155.85802     822.7259    31531.703   -1238.3738    388.42684   -849.94697   -1468.9671    802.89267   -1238.3738            0            0            0            0            0   -572.29934   -26.660883 
  380000    335.70158    141.54627    832.22834    31171.672   -1260.7973    399.26439   -861.53288   -1490.8529    802.55012   -1260.7973            0            0            0            0            0   -572.49449   -26.968815 
  385000     328.5519    103.71251    847.19469        30621   -1297.0567    390.76097   -906.29574    -1521.544    797.05932   -1297.0567            0            0            0            0            0   -572.57199   -27.453807 
  390000    329.06747    395.91762    849.71304    30530.247   -1287.3365    391.37416   -895.96238    -1518.181    803.33412   -1287.3365            0            0            0            0            0    -572.4897   -27.535416 
  395000    364.32541   -653.72828    809.28213    32055.506   -1225.9942    433.30795   -792.68621   -1461.1472     807.5132   -1225.9942            0            0            0            0            0   -572.36018    -26.22523 
  400000    301.92255    -525.7149    836.55389    31010.493   -1296.6411    359.08954   -937.55157   -1525.2371    800.93864   -1296.6411            0            0            0            0            0   -572.34263   -27.108986 
  405000    336.48435     215.3824    842.97553    30774.261   -1280.4703    400.19538   -880.27491   -1512.1428    804.18429   -1280.4703            0            0            0            0            0   -572.51182   -27.317083 
  410000    303.19833   -245.74629     822.2709    31549.151   -1236.6901    360.60687   -876.08326   -1468.8674    804.72117   -1236.6901            0            0            0            0            0   -572.54387   -26.646138 
  415000    329.56654     384.7227    843.56095    30752.904   -1282.5436    391.96772   -890.57587   -1508.6501    798.47736   -1282.5436            0            0            0            0            0   -572.37087   -27.336054 
  420000    324.90394    281.50447    841.79705    30817.343   -1275.6231     386.4223   -889.20075   -1503.6026    800.29805   -1275.6231            0            0            0            0            0   -572.31848   -27.278894 
  425000    305.82947    163.66275     843.6058    30751.269   -1282.1859     363.7362   -918.44971   -1518.0068    808.07254   -1282.1859            0            0            0            0            0   -572.25162   -27.337507 
  430000    320.01349    35.849431    828.39314    31315.987   -1243.7382    380.60587   -863.13229   -1478.1707    806.75078   -1243.7382            0            0            0            0            0   -572.31825   -26.844533 
  435000    291.55921    490.37736    838.74127     30929.62   -1248.3866    346.76396   -901.62265   -1480.5416    804.33645   -1248.3866            0            0            0            0            0   -572.18144    -27.17987 
  440000    324.04281   -767.63598    803.65112    32280.112   -1216.0109    385.39812    -830.6128   -1446.7021    803.10551   -1216.0109            0            0            0            0            0   -572.41433   -26.042754 
  445000    336.71114    84.663485    829.14792     31287.48   -1254.4587    400.46511   -853.99361   -1484.8048    802.88758   -1254.4587            0            0            0            0            0   -572.54148   -26.868992 
  450000    348.10594     98.49538    827.28544    31357.918   -1256.5019    414.01744   -842.48445   -1484.2741    799.61348   -1256.5019            0            0            0            0            0   -571.84123   -26.808637 
  455000    308.41648     165.7446    832.94619    31144.807   -1280.4453    366.81305   -913.63228   -1502.5311     794.2963   -1280.4453            0            0            0            0            0   -572.21057   -26.992077 
  460000    319.50942    613.26087    849.69042    30531.059   -1280.7132    380.00636   -900.70682   -1511.5835     803.2397   -1280.7132            0            0            0            0            0    -572.3694   -27.534683 
  465000    313.09019    322.94642    830.94901    31219.664   -1248.8105    372.37169   -876.43879   -1483.0244    806.48434   -1248.8105            0            0            0            0            0   -572.27047   -26.927357 
  470000    327.40468    279.84469    831.98898     31180.64   -1252.3499    389.39653   -862.95335   -1485.7404    805.63194   -1252.3499            0            0            0            0            0    -572.2414   -26.961058 
  475000    322.61307    -469.7375    818.93301    31677.742   -1248.2435    383.69766   -864.54583   -1472.3152    796.38834   -1248.2435            0            0            0            0            0   -572.31659   -26.537972 
  480000    312.88044     149.4384    825.91189    31410.068   -1245.5294    372.12222   -873.40716   -1476.8064    803.62356   -1245.5294            0            0            0            0            0   -572.34652   -26.764127 
  485000    320.57747    201.86623    834.93367     31070.67   -1253.2269    381.27664   -871.95029   -1490.1006     809.3059   -1253.2269            0            0            0            0            0    -572.4322   -27.056482 
  490000     332.8761   -1.5530836    836.21636     31023.01   -1274.5265    395.90393   -878.62257   -1502.6876    800.57252   -1274.5265            0            0            0            0            0   -572.41145   -27.098049 
  495000    331.42838   -31.088292    811.82957     31954.92   -1218.1787    394.18209   -823.99656   -1448.8912    803.16975   -1218.1787            0            0            0            0            0    -572.4572   -26.307781 
  500000    313.16935   -60.405496    835.69221    31042.468   -1276.9348    372.46584   -904.46896   -1506.0477    801.64829   -1276.9348            0            0            0            0            0   -572.53541   -27.081063 
  505000    321.40666   -243.41926    850.40985    30505.231    -1322.968    382.26282   -940.70518   -1552.7311    802.13793    -1322.968            0            0            0            0            0   -572.37488   -27.557996 
  510000    344.78897    110.08759    842.66493    30785.604   -1275.5893    410.07242   -865.51684   -1513.0324    809.80208   -1275.5893            0            0            0            0            0   -572.35893   -27.307018 
  515000    311.02121   -352.77881     825.6111    31421.511   -1256.2686    369.91097   -886.35761   -1486.3487    802.36225   -1256.2686            0            0            0            0            0   -572.28215   -26.754379 
  520000    326.10916   -161.93889    832.00388    31180.081   -1270.4561    387.85572   -882.60038   -1497.7222    799.52374   -1270.4561            0            0            0            0            0   -572.25765   -26.961541 
  525000    337.73857    182.69623    829.91077     31258.72   -1247.6851    401.68708   -845.99799   -1477.7914    802.16959   -1247.6851            0            0            0            0            0   -572.06327   -26.893712 
  530000     323.9988    -49.71396    818.17113     31707.24    -1229.851    385.34577   -844.50527   -1461.3687    803.98104    -1229.851            0            0            0            0            0    -572.4634   -26.513283 
  535000    311.33708    78.525288    840.52384    30864.025   -1276.2398    370.28664   -905.95321   -1506.7475    802.77606   -1276.2398            0            0            0            0            0   -572.26843   -27.237635 
  540000     336.9339   -294.35326    827.12506    31363.998   -1260.7213    400.73005   -859.99124   -1496.1612    807.68521   -1260.7213            0            0            0            0            0   -572.24528    -26.80344 
  545000    326.05834    96.562172    830.15709    31249.446   -1252.3027    387.79528    -864.5074   -1476.9373    797.11345   -1252.3027            0            0            0            0            0    -572.4788   -26.901694 
  550000    309.21395   -17.667987    826.83281    31375.084   -1238.9211    367.76151   -871.15956   -1467.9344    801.43922   -1238.9211            0            0            0            0            0   -572.42591    -26.79397 
  555000    318.23329   -48.450601    832.50562     31161.29   -1247.3951    378.48861   -868.90646   -1487.6416    812.80542   -1247.3951            0            0            0            0            0   -572.55885     -26.9778 
  560000    320.38774   -377.33908    826.99417    31368.962   -1258.2526    381.05098   -877.20158   -1490.9356    805.15485   -1258.2526            0            0            0            0            0   -572.47179   -26.799198 
  565000    341.01818   -197.44292    820.45439    31619.002   -1237.8152    405.58766   -832.22754   -1476.3221    810.82933   -1237.8152            0            0            0            0            0   -572.32241   -26.587273 
  570000     352.8243    143.35866    827.41185    31353.127   -1249.9679    419.62919   -830.33869   -1476.6047    799.10245   -1249.9679            0            0            0            0            0   -572.46563   -26.812733 
  575000    329.26134    400.01728    850.45659    30503.554   -1293.9759    391.60474   -902.37115   -1521.8937    800.33294   -1293.9759            0            0            0            0            0   -572.41514   -27.559511 
  580000    316.12484    362.32774    830.28411    31244.665   -1258.2274    375.98094   -882.24648   -1489.8682     804.0201   -1258.2274            0            0            0            0            0   -572.37929   -26.905811 
  585000    300.42373   -427.27892    837.57407    30972.722   -1285.2816    357.30693   -927.97469   -1513.8582    800.90783   -1285.2816            0            0            0            0            0   -572.33128   -27.142046 
  590000    313.37438    33.778494    814.56811    31847.489   -1216.5302    372.70969   -843.82047   -1446.4378    802.39091   -1216.5302            0            0            0            0            0   -572.48323   -26.396525 
  595000    329.61062    47.272313    828.34811    31317.689   -1255.6625    392.02016   -863.64238   -1483.9696    800.69311   -1255.6625            0            0            0            0            0   -572.38608   -26.843073 
  600000     311.7745    560.14795    867.30403     29911.02    -1329.451    370.80688   -958.64409   -1558.1218    801.17243    -1329.451            0            0            0            0            0   -572.50156   -28.105461 
  605000    295.31196    776.06702    827.96361    31332.233   -1219.9156    351.22727    -868.6883    -1455.367    807.94304   -1219.9156            0            0            0            0            0   -572.49159   -26.830613 
  610000    321.13308    184.87168    829.59803    31270.504   -1260.4082    381.93744   -878.47077   -1483.5323    795.41931   -1260.4082            0            0            0            0            0   -572.29523   -26.883578 
  615000    357.59926     239.6827    825.97146    31407.803   -1239.3578    425.30826   -814.04953   -1472.3195    805.16157   -1239.3578            0            0            0            0            0   -572.19981   -26.766057 
  620000    306.08858   -168.32861    821.45552    31580.467   -1236.9917    364.04437   -872.94731   -1473.4193    808.65991   -1236.9917            0            0            0            0            0   -572.23231   -26.619715 
  625000    334.92503    217.12554    817.34492    31739.291   -1225.3852    398.34081   -827.04439   -1458.3185    805.48344   -1225.3852            0            0            0            0            0   -572.55017   -26.486509 
  630000    313.27441    233.16196    825.89799    31410.597   -1243.5682    372.59079   -870.97738   -1474.7943    803.52491   -1243.5682            0            0            0            0            0   -572.29882   -26.763676 
  635000    332.10999    475.19775    852.31541    30437.029   -1311.1841    394.99276   -916.19131   -1534.7131    796.05001   -1311.1841            0            0            0            0            0   -572.52097   -27.619747 
  640000    320.65888    262.47361    844.73948    30709.999   -1287.5629    381.37346   -906.18945    -1523.364     808.2852   -1287.5629            0            0            0            0            0   -572.48412   -27.374245 
  645000    314.18519    464.12139       842.03    30808.818   -1285.1742    373.67403   -911.50016   -1508.8418    795.83443   -1285.1742            0            0            0            0            0   -572.16681   -27.286443 
  650000    322.68753    519.25827    850.31929    30508.479   -1296.9691    383.78623   -913.18291   -1523.8911    799.27436   -1296.9691            0            0            0            0            0   -572.35238   -27.555062 
  655000    331.14374      -414.76    826.85467    31374.254   -1259.2996    393.84355   -865.45609   -1491.6282    804.64079   -1259.2996            0            0            0            0            0   -572.31221   -26.794678 
  660000    340.69478    190.21867    828.01807    31330.172   -1241.5347    405.20302   -836.33166   -1473.4501    804.21841   -1241.5347            0            0            0            0            0   -572.30298   -26.832378 
  665000    329.85689   -207.84908    829.54952    31272.333   -1270.6957    392.31305   -878.38267   -1502.3021    803.82146   -1270.6957            0            0            0            0            0   -572.21507   -26.882006 
  670000    312.84523    -248.3935    844.70174    30711.371   -1307.6746    372.08035   -935.59429   -1533.6445     798.3895   -1307.6746            0            0            0            0            0   -572.41967   -27.373022 
  675000    308.56691     200.9105    849.56758    30535.474   -1299.4709    366.99196   -932.47898   -1533.3628    806.33071   -1299.4709            0            0            0            0            0   -572.43886   -27.530702 
  680000    344.26352    143.43231    836.73458    31003.797   -1265.7681    409.44748   -856.32065   -1495.8887      802.488   -1265.7681            0            0            0            0            0   -572.36744   -27.114842 
  685000    341.60348   -153.05696     830.2371    31246.434   -1268.3571    406.28378   -862.07335   -1496.9344    801.04245   -1268.3571            0            0            0            0            0   -572.46514   -26.904287 
  690000    322.31974   -471.60225    816.77879    31761.291   -1243.4512     383.3488   -860.10238   -1470.3416    799.30541   -1243.4512            0            0            0            0            0     -572.415   -26.468163 
  695000    338.86672    413.15609    821.37269    31583.651   -1211.6143    403.02883   -808.58551   -1442.9458    803.84084   -1211.6143            0            0            0            0            0   -572.50937   -26.617031 
  700000    333.45735   -599.57218     825.2899     31433.74   -1267.6645    396.59523   -871.06922   -1493.9465    798.64029   -1267.6645            0            0            0            0            0   -572.35821   -26.743971 
  705000    340.65563    162.71755    822.56525    31537.861   -1236.1098    405.15646    -830.9533   -1459.8585     796.3196   -1236.1098            0            0            0            0            0   -572.57082   -26.655677 
  710000    307.18188   -157.36759    817.54473    31731.534   -1234.6955    365.34468   -869.35085   -1468.8593     806.4171   -1234.6955            0            0            0            0            0   -572.25337   -26.492984 
  715000    350.01204   -95.914864    818.56443    31692.006   -1231.9705    416.28444   -815.68601   -1469.5772    809.85636   -1231.9705            0            0            0            0            0   -572.24961   -26.526028 
  720000    328.24715    66.964483    839.28493    30909.585   -1288.9373    390.39852   -898.53874   -1516.2173    799.76205   -1288.9373            0            0            0            0            0   -572.48205   -27.197487 
  725000    339.86926    351.30732    826.77429    31377.304   -1241.8415    404.22119   -837.62032   -1472.2108    802.68892   -1241.8415            0            0            0            0            0   -572.31966   -26.792073 
  730000    335.59716   -413.71378     833.2326    31134.102    -1278.345     399.1402   -879.20476   -1506.9444    801.15158    -1278.345            0            0            0            0            0   -572.55215   -27.001358 
  735000    334.03332   -276.43871    830.29492    31244.258    -1258.901    397.28027   -861.62074   -1493.9789     807.3823    -1258.901            0            0            0            0            0   -572.30442   -26.906161 
  740000    316.16994   -259.20975    836.39054     31016.55    -1286.399    376.03457   -910.36444   -1505.9123     791.9011    -1286.399            0            0            0            0            0   -572.38779   -27.103693 
  745000     315.0352   -271.84926    817.75147    31723.512   -1240.6385    374.68498   -865.95354   -1469.4351    801.44376   -1240.6385            0            0            0            0            0   -572.64714   -26.499684 
  750000    332.12153    48.002861    831.20244    31210.145   -1263.1217    395.00649   -868.11517   -1490.6341    799.74322   -1263.1217            0            0            0            0            0   -572.23076    -26.93557 
  755000    323.48381   -99.881561    838.09445     30953.49   -1274.1536    384.73327   -889.42028   -1501.2121    799.26328   -1274.1536            0            0            0            0            0   -572.20469   -27.158909 
  760000    319.50402    189.83766     834.8583    31073.475   -1263.4444    379.99993   -883.44448   -1493.9925    803.00724   -1263.4444            0            0            0            0            0   -572.45921    -27.05404 
  765000    338.68789    274.72517    822.71331    31532.185   -1215.8224    402.81614   -813.00623   -1454.7545    811.37328   -1215.8224            0            0            0            0            0   -572.44117   -26.660475 
  770000    360.45243   -104.02732    823.56637    31499.524   -1253.7751    428.70165   -825.07344   -1481.3851    800.17345   -1253.7751            0            0            0            0            0   -572.56344   -26.688119 
  775000    322.50604    14.456845    833.01161    31142.361   -1270.1383    383.57037   -886.56797   -1501.2708    803.67221   -1270.1383            0            0            0            0            0    -572.5397   -26.994197 
  780000    314.72997   -524.29238    825.50207    31425.661   -1266.9327    374.32195   -892.61071   -1493.4041    798.97199   -1266.9327            0            0            0            0            0   -572.50054   -26.750846 
  785000    325.41074   -327.98235    822.21443    31551.318   -1253.4402    387.02505   -866.41515   -1482.2239    801.31445   -1253.4402            0            0            0            0            0   -572.53071   -26.644308 
  790000    335.95078    117.36872    829.42129    31277.167   -1248.0485    399.56078   -848.48776   -1478.6226    803.06958   -1248.0485            0            0            0            0            0   -572.49553   -26.877851 
  795000    307.82497    116.26934     835.4494     31051.49   -1267.2479    366.10954   -901.13841   -1494.1183    799.14557   -1267.2479            0            0            0            0            0   -572.27527   -27.073195 
  800000    307.53069   -771.03289    850.04795    30518.218    -1332.066    365.75954   -966.30645    -1557.594    798.18602    -1332.066            0            0            0            0            0   -572.65802   -27.546269 
  805000    347.73296    319.84397    840.28379    30872.842   -1288.7352    413.57384   -875.16141   -1510.9622    794.87702   -1288.7352            0            0            0            0            0   -572.65005   -27.229856 
  810000    344.11464   -179.04812    838.80776    30927.168   -1292.7349    409.27041   -883.46449   -1520.6288    800.38696   -1292.7349            0            0            0            0            0   -572.49305   -27.182024 
  815000    321.59115   -290.50998    822.51435    31539.813   -1241.0643    382.48225   -858.58208    -1473.474    804.85664   -1241.0643            0            0            0            0            0   -572.44698   -26.654027 
  820000    331.51828   -256.20497    828.84316    31298.984   -1261.9363    394.28902   -867.64731   -1492.1334    802.56588   -1261.9363            0            0            0            0            0   -572.36886   -26.859116 
  825000    308.74104   -424.07133    818.32851    31701.142   -1248.1036    367.19906   -880.90451   -1479.0766     803.4979   -1248.1036            0            0            0            0            0   -572.52484   -26.518383 
  830000    323.45123   -40.326791    836.91614    30997.071   -1278.3292    384.69453   -893.63471   -1509.6231    803.87227   -1278.3292            0            0            0            0            0   -572.57841   -27.120725 
  835000    315.29369   -85.566285    834.96741    31069.415   -1293.7685     374.9924   -918.77605    -1515.902    794.60311   -1293.7685            0            0            0            0            0   -572.46961   -27.057576 
  840000    331.81183    -153.3963     830.4568    31238.168   -1264.1826    394.63815   -869.54447   -1499.3577    807.17886   -1264.1826            0            0            0            0            0   -572.00376   -26.911407 
  845000    321.49702   -74.031191    812.16389    31941.765   -1212.5523     382.3703   -830.18201   -1445.9544    805.45963   -1212.5523            0            0            0            0            0   -572.05758   -26.318615 
  850000    302.03882   -395.99221    828.96893    31294.235   -1270.1489    359.22781   -910.92108   -1493.7378     796.0452   -1270.1489            0            0            0            0            0    -572.4563   -26.863192 
  855000     325.1839   -98.526386    823.46091    31503.558   -1232.8347    386.75527   -846.07945   -1468.4376    807.82267   -1232.8347            0            0            0            0            0   -572.21975   -26.684701 
  860000    322.48066    473.56917    839.60797    30897.692   -1273.5507    383.54018   -890.01053   -1506.3706    804.97859   -1273.5507            0            0            0            0            0   -572.15872   -27.207955 
  865000    321.50708     332.6468    849.16387    30549.991   -1303.0624    382.38226    -920.6801   -1522.3635    791.89218   -1303.0624            0            0            0            0            0   -572.59104    -27.51762 
  870000     325.4355   -38.874098     824.8041    31452.255   -1247.0288     387.0545   -859.97426   -1470.0011    795.44108   -1247.0288            0            0            0            0            0   -572.46871   -26.728228 
  875000    325.99487    118.48691    831.87191    31185.028   -1255.4674    387.71979   -867.74761   -1484.2886    801.21896   -1255.4674            0            0            0            0            0   -572.39775   -26.957264 
  880000    334.50946    730.33864    829.87444    31260.089   -1231.0537    397.84655   -833.20717   -1457.9445    799.57097   -1231.0537            0            0            0            0            0   -572.68015   -26.892535 
  885000    296.47517    13.641671    822.17795    31552.717   -1236.9515    352.61073   -884.34074   -1465.1165    800.81945   -1236.9515            0            0            0            0            0   -572.65444   -26.643126 
  890000    350.33215    77.431368    822.32153    31547.208   -1233.9111    416.66517   -817.24589    -1468.533    807.01953   -1233.9111            0            0            0            0            0   -572.39762   -26.647779 
  895000    313.21479    220.96525    842.64072    30786.488   -1281.2061    372.51989   -908.68623   -1518.9528    809.82872   -1281.2061            0            0            0            0            0   -572.08208   -27.306233 
  900000    306.73237    590.92029    856.47496    30289.208   -1309.7545    364.81006   -944.94447   -1532.7079    795.38775   -1309.7545            0            0            0            0            0   -572.43439   -27.754539 
  905000    308.25224   -179.21993    834.18312    31098.626   -1279.8118     366.6177   -913.19415   -1505.6169    798.39453   -1279.8118            0            0            0            0            0   -572.58946    -27.03216 
  910000    295.69581   -54.986273    844.67616    30712.301   -1294.5726     351.6838   -942.88881   -1520.8518    798.37309   -1294.5726            0            0            0            0            0    -572.0939   -27.372193 
  915000    339.79889   -98.967189    829.91503     31258.56   -1262.4519     404.1375   -858.31435   -1492.0867    801.94159   -1262.4519            0            0            0            0            0   -572.30678    -26.89385 
  920000    336.89819   -309.06157    825.51298    31425.246   -1259.7612    400.68757   -859.07361   -1488.9843    801.58911   -1259.7612            0            0            0            0            0   -572.36597     -26.7512 
  925000    299.22343    278.92253    863.61341    30038.844   -1352.9855    355.87936   -997.10612   -1566.6953    786.10975   -1352.9855            0            0            0            0            0   -572.39991   -27.985865 
  930000    315.87567    16.472523    806.59224    32162.408   -1199.9893    375.68458   -824.30472   -1430.4191     802.6273   -1199.9893            0            0            0            0            0   -572.19745   -26.138063 
  935000    315.19011   -302.57257    821.35951    31584.158   -1242.6455    374.86922   -867.77627   -1476.6998    806.38529   -1242.6455            0            0            0            0            0   -572.33093   -26.616604 
  940000    323.49169   -85.197323    827.51929    31349.056    -1255.918    384.74265   -871.17534    -1491.061    807.37704    -1255.918            0            0            0            0            0   -572.23402   -26.816215 
  945000    324.41693    126.58029    836.72024    31004.328   -1280.8393    385.84308   -894.99626   -1503.1749    794.96844   -1280.8393            0            0            0            0            0    -572.6329   -27.114377 
  950000    334.64677    561.79927     842.0228    30809.081   -1263.6944    398.00987   -865.68457   -1495.8116     804.6393   -1263.6944            0            0            0            0            0   -572.52214   -27.286209 
  955000    334.45863   -192.29959    828.42204    31314.894   -1262.7386     397.7861   -864.95245   -1484.7169     794.4099   -1262.7386            0            0            0            0            0   -572.43153   -26.845469 
  960000    331.75223    91.169527    840.52953    30863.816   -1277.5245    394.56727   -882.95727    -1504.265    799.02172   -1277.5245            0            0            0            0            0    -572.2813   -27.237819 
  965000    332.12735    644.34958    806.24273     32176.35    -1169.908     395.0134   -774.89462   -1409.6482    812.16213    -1169.908            0            0            0            0            0   -572.42193   -26.126737 
  970000    324.37496    185.93988    840.49482    30865.091    -1267.151    385.79315   -881.35782   -1504.8413    809.96665    -1267.151            0            0            0            0            0   -572.27635   -27.236694 
  975000    325.17024   -451.49998     808.4553    32088.291   -1221.9923    386.73902   -835.25331   -1452.0843    802.42604   -1221.9923            0            0            0            0            0   -572.33404   -26.198436 
  980000    361.09592    36.042522     847.2969    30617.306   -1292.4282    429.46699   -862.96126   -1522.3399    802.27989   -1292.4282            0            0            0            0            0   -572.36822   -27.457119 
  985000    316.27976   -83.153587    831.93917    31182.506   -1262.1313    376.16519   -885.96608   -1493.4275    803.91247   -1262.1313            0            0            0            0            0   -572.61628   -26.959444 
  990000    298.35873    152.17117    834.94057    31070.413   -1267.6768    354.85092   -912.82588    -1499.542    804.25151   -1267.6768            0            0            0            0            0   -572.38635   -27.056706 
  995000    307.64774   -323.02528    834.75298    31077.396   -1290.2625    365.89875   -924.36378   -1527.9426    810.04979   -1290.2625            0            0            0            0            0   -572.36972   -27.050627 
 1000000    308.37948    521.06596    859.43926    30184.738   -1310.9822    366.76904   -944.21313   -1541.7299    802.99347   -1310.9822            0            0            0            0            0   -572.24571   -27.850599 
 1005000    327.28765   -160.91831    810.68071    32000.205   -1225.5398    389.25734   -836.28243   -1454.2751    801.26762   -1225.5398            0            0            0            0            0   -572.53232   -26.270552 
 1010000    328.62988    178.31033    824.52533    31462.889   -1235.4384    390.85372   -844.58469   -1469.9702    807.08098   -1235.4384            0            0            0            0            0   -572.54923   -26.719194 
 1015000    327.28874   -78.166056    819.99847    31636.582    -1242.836    389.25864   -853.57741   -1470.2472    799.79548    -1242.836            0            0            0            0            0   -572.38433   -26.572499 
 1020000    332.52168    200.15913    828.56667    31309.428   -1239.2206     395.4824   -843.73824   -1471.1139    804.34972   -1239.2206            0            0            0            0            0   -572.45649   -26.850156 
 1025000    319.88356    197.73502     821.7877    31567.701   -1239.6566    380.45134    -859.2053   -1458.6164    791.46625   -1239.6566            0            0            0            0            0   -572.50646    -26.63048 
 1030000    313.76267   -399.53687    823.98321    31483.589   -1255.3997     373.1715   -882.22817   -1484.4626    801.47802   -1255.3997            0            0            0            0            0   -572.41504   -26.701627 
 1035000    312.65041   -337.98291    819.56169    31653.442   -1246.0199    371.84864   -874.17128   -1479.8576    806.00784   -1246.0199            0            0            0            0            0   -572.17018   -26.558345 
 1040000    314.64203    571.35688    831.62029    31194.463   -1229.6756    374.21736   -855.45825   -1462.1714    804.72383   -1229.6756            0            0            0            0            0     -572.228    -26.94911 
 1045000     339.1856    88.097406    830.95628    31219.391   -1258.5557    403.40808   -855.14759   -1485.8922    799.65038   -1258.5557            0            0            0            0            0   -572.31385   -26.927593 
 1050000    334.76876    76.345325    831.16544    31211.534   -1247.9792    398.15495   -849.82429   -1485.1909    809.56498   -1247.9792            0            0            0            0            0   -572.35337   -26.934371 
 1055000    315.24647    252.45725    838.29415    30946.117    -1264.161    374.93625   -889.22478   -1496.6771    805.03591    -1264.161            0            0            0            0            0   -572.51985    -27.16538 
 1060000    328.25276   -299.57886    815.41672    31814.345   -1234.8095    390.40519   -844.40436   -1464.4685    802.14097   -1234.8095            0            0            0            0            0   -572.48197   -26.424025 
 1065000    310.67946   -154.71579     828.8274    31299.579   -1266.4259    369.50451   -896.92137   -1490.0555    796.00914   -1266.4259            0            0            0            0            0   -572.37957   -26.858605 
 1070000    337.20873   -543.66602    807.16324    32139.656    -1225.109    401.05691   -824.05208   -1450.9367    798.20879    -1225.109            0            0            0            0            0   -572.38112   -26.156566 
 1075000    328.76012    337.20358    848.56498    30571.552   -1286.5703    391.00862   -895.56164   -1518.0974    803.89927   -1286.5703            0            0            0            0            0   -572.37215   -27.498212 
 1080000    317.84419   -566.31274    823.76753    31491.832   -1251.0113    378.02582   -872.98549   -1490.3143    811.53889   -1251.0113            0            0            0            0            0   -572.23591   -26.694637 
 1085000    318.59947   -103.79949    830.43477    31238.996   -1257.8704    378.92412   -878.94627   -1484.1123    798.82729   -1257.8704            0            0            0            0            0   -572.58534   -26.910693 
 1090000    314.70254    234.73728    833.63291    31119.151   -1260.0373    374.28933     -885.748   -1495.0351    807.57358   -1260.0373            0            0            0            0            0    -572.5758    -27.01433 
 1095000    327.57311    116.07957    819.17276    31668.471   -1224.9349    389.59685   -835.33806   -1460.3978    808.05063   -1224.9349            0            0            0            0            0   -572.58771   -26.545741 
 1100000    344.11485    292.14491    833.87024    31110.294   -1256.4154    409.27066    -847.1447   -1483.6479    799.66544   -1256.4154            0            0            0            0            0   -572.43294   -27.022021 
 1105000    325.47386   -236.24274    825.78039     31415.07   -1250.5052    387.10012   -863.40503   -1482.1778    804.17581   -1250.5052            0            0            0            0            0   -572.50314   -26.759865 
 1110000     319.6672    131.86297    844.01568    30736.335   -1294.8048    380.19402   -914.61075   -1519.6393    797.12589   -1294.8048            0            0            0            0            0   -572.29136    -27.35079 
 1115000    328.29342    452.73873    833.53846    31122.678    -1243.414    390.45355   -852.96044   -1474.7912    803.89777    -1243.414            0            0            0            0            0   -572.52059    -27.01127 
 1120000    312.21634   -194.95736    817.54843    31731.391   -1226.0725    371.33239    -854.7401   -1458.5015    804.73505   -1226.0725            0            0            0            0            0   -572.30601   -26.493104 
 1125000    312.81171   -68.323849    833.55173    31122.182   -1271.6206    372.04048   -899.58007   -1495.8824    796.71809   -1271.6206            0            0            0            0            0   -572.45619     -27.0117 
 1130000    311.04111   -35.993437    830.98472    31218.322    -1263.007    369.93463   -893.07232   -1493.1379    802.31058    -1263.007            0            0            0            0            0    -572.1796   -26.928514 
 1135000    342.62094   -156.41336    837.89425    30960.886   -1298.6355    407.49389   -891.14159   -1517.5477    791.17281   -1298.6355            0            0            0            0            0   -572.26058   -27.152421 
 1140000    327.43177    -66.94533    839.97226    30884.292   -1291.6786    389.42875   -902.24987   -1519.3644    800.29561   -1291.6786            0            0            0            0            0   -572.60982    -27.21976 
 1145000    307.77497   -246.15993    847.04901    30626.267   -1303.6441    366.05008   -937.59404   -1530.9108    799.85672   -1303.6441            0            0            0            0            0   -572.59004   -27.449086 
 1150000    343.96081    60.947531    825.12443    31440.044   -1242.6707    409.08746   -833.58324   -1480.5022    810.11358   -1242.6707            0            0            0            0            0   -572.28212   -26.738608 
 1155000    333.82615     243.0532    847.54851    30608.217   -1296.1553    397.03387   -899.12139   -1524.1564    800.29136   -1296.1553            0            0            0            0            0   -572.29025   -27.465273 
 1160000    315.08138    41.997937    828.72963    31303.272   -1255.8761     374.7399   -881.13618   -1480.9191    797.54334   -1255.8761            0            0            0            0            0   -572.50033   -26.855437 
 1165000    322.16755   -273.54177    831.10993    31213.619   -1269.3947    383.16778   -886.22692   -1499.9138    803.04041   -1269.3947            0            0            0            0            0   -572.52134   -26.932572 
 1170000    338.30116   -92.189432     828.4343    31314.431   -1250.7601    402.35618   -848.40394   -1483.6331    805.26162   -1250.7601            0            0            0            0            0   -572.38864   -26.845867 
 1175000    309.51349    79.249716    822.25679    31549.692   -1228.9693    368.11777   -860.85156   -1464.8482    808.31688   -1228.9693            0            0            0            0            0   -572.43797   -26.645681 
 1180000    328.30165   -102.81603    845.20419    30693.114   -1308.7802    390.46333   -918.31685   -1532.7294    796.51346   -1308.7802            0            0            0            0            0   -572.56426   -27.389304 
 1185000    302.87271    25.945623     831.8949    31184.166   -1264.9997    360.21961   -904.78014   -1490.1971    797.66193   -1264.9997            0            0            0            0            0   -572.46455   -26.958009 
 1190000    309.84009   -369.67288    812.66848    31921.933   -1224.8401    368.50621   -856.33394   -1462.0848    809.65118   -1224.8401            0            0            0            0            0   -572.40651   -26.334966 
 1195000    333.15878   -301.83918    817.60849     31729.06   -1246.9353    396.24013   -850.69517   -1477.7191    803.29124   -1246.9353            0            0            0            0            0   -572.50742    -26.49505 
 1200000    339.31734     418.5431    834.59162    31083.404   -1248.1766    403.56477   -844.61181   -1479.8236    804.33979   -1248.1766            0            0            0            0            0   -572.69276   -27.045398 
 1205000    314.35102   -64.796047    837.51366    30974.956   -1277.1815    373.87125   -903.31022   -1510.8799    806.04762   -1277.1815            0            0            0            0            0   -572.34917   -27.140088 
 1210000    341.12708   -465.91154    807.51948    32125.477   -1223.6148    405.71718   -817.89762   -1453.3428    802.33979   -1223.6148            0            0            0            0            0   -572.61181    -26.16811 
 1215000    310.15178    160.39354    840.09373    30879.826   -1285.5019    368.87691   -916.62497    -1507.241    794.16806   -1285.5019            0            0            0            0            0    -572.4289   -27.223697 
 1220000    332.87521   -344.63571    823.15231    31515.369    -1257.525    395.90287   -861.62216   -1485.0168     800.0618    -1257.525            0            0            0            0            0   -572.56999   -26.674701 
 1225000    310.92832   -168.82225    831.50205    31198.899   -1263.9653    369.80049   -894.16481    -1497.375    805.98866   -1263.9653            0            0            0            0            0   -572.57896   -26.945279 
 1230000    304.22599    164.31882    810.91887    31990.806   -1221.7429    361.82912   -859.91375   -1453.0448     803.6295   -1221.7429            0            0            0            0            0   -572.32757    -26.27827 
 1235000    315.79388   -271.16826    816.11064    31787.294   -1236.1867    375.58731   -860.59938   -1466.4278    802.50746   -1236.1867            0            0            0            0            0    -572.2664   -26.446512 
 1240000    350.74796    233.59176    830.78555    31225.806   -1259.3508     417.1597   -842.19108   -1487.2784    800.34683   -1259.3508            0            0            0            0            0   -572.41925    -26.92206 
 1245000    310.67053   -452.76619    827.43189    31352.368    -1263.031    369.49388   -893.53708   -1496.0922    805.39629    -1263.031            0            0            0            0            0   -572.33508   -26.813383 
 1250000    326.69359   -114.01168    830.34428    31242.401   -1253.5365    388.55081   -864.98569   -1497.0342    815.78539   -1253.5365            0            0            0            0            0   -572.28765    -26.90776 
 1255000    333.88613     -65.6281    818.53378    31693.193    -1234.726     397.1052   -837.62082   -1465.0366    802.75804    -1234.726            0            0            0            0            0   -572.44742   -26.525035 
 1260000    313.86166   -74.462178    822.64386    31534.847   -1243.4783    373.28923   -870.18904   -1473.4753    802.16411   -1243.4783            0            0            0            0            0   -572.16709   -26.658224 
 1265000     322.7873   -431.63456    813.05958    31906.578   -1231.6499    383.90488   -847.74499    -1466.485    807.30861   -1231.6499            0            0            0            0            0   -572.47346    -26.34764 
 1270000    328.76255   -379.41261    842.32085    30798.179   -1305.2598    391.01151   -914.24831   -1532.2448    799.40226   -1305.2598            0            0            0            0            0   -572.41727   -27.295868 
 1275000    332.66261   -414.13303    824.37773    31468.522   -1256.7288    395.65002   -861.07877   -1497.6502    813.21621   -1256.7288            0            0            0            0            0   -572.29483   -26.714411 
 1280000    323.61284    333.04644    832.35866    31166.791   -1260.6774    384.88674   -875.79068   -1485.8208    797.45121   -1260.6774            0            0            0            0            0   -572.30784   -26.973038 
 1285000    328.55571    75.579726    840.03848    30881.858   -1284.0363    390.76551    -893.2708   -1509.2423    797.80926   -1284.0363            0            0            0            0            0   -572.60332   -27.221906 
 1290000    329.23164   -89.045945    838.91537    30923.201   -1274.8053    391.56942   -883.23585   -1508.4612    806.19099   -1274.8053            0            0            0            0            0   -572.53509   -27.185511 
 1295000    318.35826    194.92614    841.08774    30843.332   -1278.3493    378.63723   -899.71205   -1505.5626    799.73351   -1278.3493            0            0            0            0            0   -572.52023   -27.255908 
 1300000    322.81862   -247.91372    828.99226    31293.354   -1265.4144    383.94214   -881.47227   -1495.6896    802.61086   -1265.4144            0            0            0            0            0   -572.33567   -26.863948 
 1305000    333.54878    349.79308     826.2081    31398.807   -1237.9046    396.70397   -841.20064   -1467.0317    801.45702   -1237.9046            0            0            0            0            0   -572.32989   -26.773725 
 1310000     329.9997   -63.374032    834.65292    31081.121    -1271.251    392.48291   -878.76808     -1503.53    804.77256    -1271.251            0            0            0            0            0   -572.49356   -27.047384 
 1315000    311.79614   -164.41366    810.90624    31991.305   -1205.6526    370.83262   -834.81993    -1443.772    810.66023   -1205.6526            0            0            0            0            0   -572.54074    -26.27786 
 1320000    326.52012    225.64891    830.57757    31233.625   -1255.7455    388.34449   -867.40105   -1480.3067    797.06365   -1255.7455            0            0            0            0            0   -572.50254    -26.91532 
 1325000     332.3952    90.107693     845.9736    30665.199   -1300.7388    395.33198   -905.40686   -1522.7132    794.40013   -1300.7388            0            0            0            0            0    -572.4258   -27.414237 
 1330000    327.09406   -27.296848    826.27617     31396.22   -1244.3147     389.0271   -855.28759   -1476.3637    804.27056   -1244.3147            0            0            0            0            0   -572.22157   -26.775931 
 1335000     356.0381     9.718876     840.8868    30850.703   -1284.5093     423.4515   -861.05777   -1516.1656    804.16517   -1284.5093            0            0            0            0            0    -572.5088   -27.249397 
 1340000    339.93787    144.76218     827.2693     31358.53   -1256.2636     404.3028   -851.96076   -1482.2595    798.25658   -1256.2636            0            0            0            0            0   -572.26066   -26.808114 
 1345000    318.45575    175.01645     819.4115    31659.244   -1226.4511    378.75318   -847.69791   -1454.9882    800.82178   -1226.4511            0            0            0            0            0   -572.28468   -26.553478 
 1350000    324.43201   -62.905469     825.7883    31414.769   -1247.9537    385.86101   -862.09272   -1477.0663    801.65385   -1247.9537            0            0            0            0            0   -572.54127   -26.760121 
 1355000    325.04644    129.41394    825.64311    31420.293    -1244.169    386.59177   -857.57727   -1476.6456    804.78489    -1244.169            0            0            0            0            0   -572.30836   -26.755417 
 1360000    339.64444   -154.94618    834.33015    31093.145   -1283.2658    403.95381   -879.31197   -1508.3624    797.44967   -1283.2658            0            0            0            0            0   -572.35305   -27.036925 
 1365000    327.42318   -161.67215    829.49065    31274.552   -1265.0156    389.41854    -875.5971   -1496.2656    803.85719   -1265.0156            0            0            0            0            0   -572.60717   -26.880098 
 1370000    333.37444   -104.55151    845.56154    30680.143    -1310.379    396.49662   -913.88237   -1534.6124    796.54889    -1310.379            0            0            0            0            0   -572.31551   -27.400884 
 1375000    314.02726    79.730737     846.3813    30650.428   -1311.8282    373.48619   -938.34199   -1535.9799    796.22566   -1311.8282            0            0            0            0            0   -572.07396   -27.427449 
 1380000    343.92126   -161.55623    829.23168    31284.319   -1265.7796    409.04041   -856.73914   -1498.9381    805.63739   -1265.7796            0            0            0            0            0   -572.47882   -26.871706 
 1385000    306.58292    796.91747    837.91016    30960.298   -1246.9778    364.63232   -882.34552   -1478.4966    803.99287   -1246.9778            0            0            0            0            0   -572.47409   -27.152937 
 1390000    346.15428    193.59855    834.52923    31085.728   -1259.2465    411.69624   -847.55029   -1497.9749    810.57977   -1259.2465            0            0            0            0            0   -571.85135   -27.043376 
 1395000     296.1277    -247.6163    821.85172    31565.242   -1242.9336    352.19747   -890.73617   -1471.0576    800.33399   -1242.9336            0            0            0            0            0   -572.21002   -26.632554 
 1400000    329.67061    98.191436    813.34177    31895.508   -1196.4605     392.0915   -804.36898   -1437.8387     813.9593   -1196.4605            0            0            0            0            0   -572.58107   -26.356785 
 1405000    328.63275    198.87358    849.56562    30535.544   -1296.9228    390.85714   -906.06564   -1529.5481    804.95431   -1296.9228            0            0            0            0            0     -572.329   -27.530639 
 1410000    337.75369   -30.836554    832.93092    31145.378     -1266.63    401.70506   -864.92493   -1492.6085    798.42972     -1266.63            0            0            0            0            0   -572.45117   -26.991582 
 1415000    338.71187    290.45694    834.19616    31098.139   -1244.4522    402.84466   -841.60758    -1471.469    799.76045   -1244.4522            0            0            0            0            0   -572.74369   -27.032583 
 1420000    315.64957    99.130613     831.1184    31213.301    -1255.392    375.41568   -879.97628   -1486.6595     803.6595    -1255.392            0            0            0            0            0   -572.39197   -26.932846 
 1425000    318.53918    701.44966    843.04339    30771.783   -1270.5441    378.85241   -891.69173   -1492.8071    794.67717   -1270.5441            0            0            0            0            0   -572.41426   -27.319282 
 1430000    323.80924    -340.0845    822.48797    31540.825   -1261.4186    385.12033   -876.29832   -1484.5778    795.67819   -1261.4186            0            0            0            0            0   -572.51905   -26.653172 
 1435000    323.36747    762.59097    818.88498      31679.6   -1199.1007     384.5949   -814.50578   -1434.9121    807.96206   -1199.1007            0            0            0            0            0    -572.1506   -26.536416 
 1440000     315.8519    123.58953    841.18576    30839.738   -1272.7398    375.65631   -897.08344   -1499.3972    799.09932   -1272.7398            0            0            0            0            0   -572.44186   -27.259085 
 1445000    322.25742    -9.393852    823.48039    31502.813   -1251.8209    383.27468   -868.54623   -1480.1826    800.71877   -1251.8209            0            0            0            0            0   -572.35707   -26.685333 
 1450000    337.98906     467.0511    853.82267    30383.298   -1293.1736    401.98499   -891.18862   -1519.3366    798.64875   -1293.1736            0            0            0            0            0   -572.48576    -27.66859 
 1455000    317.30455   -292.91775    823.44641    31504.113   -1258.4322    377.38402   -881.04818   -1490.7539    804.52239   -1258.4322            0            0            0            0            0    -572.2007   -26.684231 
 1460000    332.75921    -120.6108    825.52235     31424.89   -1239.8874     395.7649    -844.1225   -1477.8391    810.36696   -1239.8874            0            0            0            0            0   -572.41531   -26.751503 
 1465000    327.39194   -319.78652    828.17498    31324.236   -1244.8919    389.38138   -855.51048   -1485.5416    812.94531   -1244.8919            0            0            0            0            0   -572.29553   -26.837463 
 1470000    326.16564    7.1221231    825.68739    31418.608   -1246.0355     387.9229   -858.11257   -1479.4433      805.869   -1246.0355            0            0            0            0            0   -572.46112   -26.756852 
 1475000    329.64417   -611.51814    804.26207    32255.591   -1213.6043    392.06005   -821.54424   -1452.1409    810.77608   -1213.6043            0            0            0            0            0   -572.23946   -26.062552 
 1480000    316.97779     614.5328    843.35408    30760.447   -1269.7032    376.99538   -892.70784   -1495.6399     798.3514   -1269.7032            0            0            0            0            0   -572.41473    -27.32935 
 1485000    305.04317    138.72389    833.69918    31116.678   -1258.1953    362.80102   -895.39431   -1486.0933    800.09612   -1258.1953            0            0            0            0            0   -572.19815   -27.016478 
 1490000    313.26433    448.65701    830.75692    31226.882   -1239.9159    372.57881   -867.33713   -1470.9057    803.52595   -1239.9159            0            0            0            0            0   -572.53616   -26.921132 
 1495000    340.03813   -56.997843    823.87361    31487.777   -1243.0687    404.42204   -838.64665   -1482.6827    811.94937   -1243.0687            0            0            0            0            0   -572.33532   -26.698075 
 1500000    320.19647   -123.41899    821.56132      31576.4   -1239.4382    380.82349   -858.61466   -1476.1442    808.97801   -1239.4382            0            0            0            0            0   -572.27199   -26.623144 
 1505000    313.19834    150.24386     816.8417    31758.845   -1220.5502    372.50032   -848.04984   -1448.4856    800.10336   -1220.5502            0            0            0            0            0   -572.16795   -26.470202 
 1510000    328.81918    -155.4293    819.31269    31663.062   -1246.7216    391.07886   -855.64269   -1469.7426    795.53619   -1246.7216            0            0            0            0            0   -572.51511   -26.550276 
 1515000    309.31263   -23.179356    835.79406    31038.685    -1267.317    367.87887   -899.43817    -1501.578     806.5625    -1267.317            0            0            0            0            0   -572.30157   -27.084364 
 1520000    324.19841   -93.395649    816.11999     31786.93   -1208.0909    385.58318   -822.50773   -1446.2963    810.33037   -1208.0909            0            0            0            0            0   -572.12493   -26.446815 
 1525000    336.75219    46.943604    826.32798    31394.252   -1236.7438    400.51393   -836.22986   -1468.2028    803.86722   -1236.7438            0            0            0            0            0   -572.40825    -26.77761 
 1530000    333.90127   -570.37014    824.87395    31449.591   -1269.1393    397.12321   -872.01606   -1498.0651    801.43824   -1269.1393            0            0            0            0            0   -572.51239   -26.730491 
 1535000    327.75603    50.613925    820.77095    31606.807   -1233.5346    389.81441   -843.72015   -1471.0019    809.81585   -1233.5346            0            0            0            0            0   -572.34851   -26.597531 
 1540000    329.93507    64.540897    833.78366    31113.525   -1266.0239    392.40604   -873.61781    -1496.618    803.02787   -1266.0239            0            0            0            0            0   -572.43374   -27.019216 
 1545000    314.66111   -91.347474    818.44134    31696.772   -1243.5166    374.24006   -869.27654   -1465.2677    794.27925   -1243.5166            0            0            0            0            0   -572.52815   -26.522039 
 1550000    303.39919   -134.20786    822.70083    31532.664   -1245.9348    360.84577   -885.08898   -1474.4062    800.65816   -1245.9348            0            0            0            0            0   -572.18674    -26.66007 
 1555000    316.17818   -29.865524    826.03018     31405.57   -1254.3657    376.04437   -878.32133   -1479.6151    797.61958   -1254.3657            0            0            0            0            0   -572.37019    -26.76796 
 1560000    330.49558    831.89843    846.18478    30657.546   -1258.6013    393.07267   -865.52862   -1492.5648    806.34382   -1258.6013            0            0            0            0            0   -572.38034   -27.421081 
 1565000    315.33837    277.59895     813.0433    31907.217   -1199.3014    375.04555   -824.25588   -1433.9687    806.95316   -1199.3014            0            0            0            0            0    -572.2859   -26.347113 
 1570000    338.38709   -249.02747    810.45997     32008.92   -1215.6635    402.45839   -813.20512   -1450.0007    806.51909   -1215.6635            0            0            0            0            0   -572.18195   -26.263398 
 1575000    306.48347    273.00531    838.77025    30928.551    -1257.778    364.51404   -893.26399   -1491.6828    806.32398    -1257.778            0            0            0            0            0   -572.41919   -27.180809 
 1580000    310.99608   -41.254176    825.22337    31436.275   -1237.3203    369.88108   -867.43918   -1476.4668    811.47244   -1237.3203            0            0            0            0            0   -572.32592   -26.741815 
 1585000    327.38446   -22.852948    812.63777    31923.139   -1209.3227    389.37248   -819.95021   -1446.1748    809.21776   -1209.3227            0            0            0            0            0   -572.36567   -26.333971 
 1590000    320.13765   -298.97478    804.40118    32250.013   -1214.2007    380.75354   -833.44712   -1446.7769    804.81257   -1214.2007            0            0            0            0            0   -572.23629    -26.06706 
 1595000    325.39403    124.12049    838.28614    30946.413   -1270.4557    387.00518   -883.45055   -1502.9438     804.8773   -1270.4557            0            0            0            0            0   -572.38925   -27.165121 
[...]
 4600000    339.67946      6.00776    823.44324    31504.234   -1255.5492    403.99545   -851.55371   -1486.3456     803.2602   -1255.5492            0            0            0            0            0   -572.46374   -26.684129 
 4605000      344.149   -252.51829    843.35928    30760.258   -1292.3823    409.31127   -883.07099   -1528.2449    808.41666   -1292.3823            0            0            0            0            0   -572.55401   -27.329519 
 4610000    328.12817   -411.78429    837.65756    30969.635   -1278.4148    390.25701   -888.15776   -1512.6296    806.68709   -1278.4148            0            0            0            0            0   -572.47222   -27.144751 
 4615000    286.39901    46.099246     825.7842    31414.925   -1243.3013    340.62672   -902.67462    -1470.548    799.85197   -1243.3013            0            0            0            0            0   -572.60535   -26.759988 
 4620000    287.13911   -188.69584    838.09189    30953.585   -1277.1242    341.50696   -935.61729   -1506.5313    801.76304   -1277.1242            0            0            0            0            0     -572.356   -27.158826 
 4625000    332.69184    453.00186    846.02964    30663.168   -1288.0253    395.68478   -892.34052   -1507.8034    792.19977   -1288.0253            0            0            0            0            0   -572.42168   -27.416053 
 4630000    320.64241   -204.94931    819.96125    31638.018   -1242.8851    381.35387   -861.53119   -1477.1876    806.66831   -1242.8851            0            0            0            0            0   -572.36575   -26.571293 
 4635000    331.86364   -599.92483    810.86019    31993.122   -1233.8113    394.69977   -839.11156   -1464.2382    802.84566   -1233.8113            0            0            0            0            0   -572.41875   -26.276368 
 4640000    331.95787   -623.56456    800.38681    32411.764   -1196.8811    394.81183   -802.06923   -1432.4277    808.02699   -1196.8811            0            0            0            0            0   -572.48032   -25.936972 
 4645000    348.01382    419.00485    829.86852    31260.312   -1241.6501    413.90788   -827.74219   -1470.0431    800.79864   -1241.6501            0            0            0            0            0   -572.40557   -26.892343 
 4650000    307.86646    73.983677    820.50315    31617.122   -1228.3527    366.15888   -862.19378   -1458.9422    803.15477   -1228.3527            0            0            0            0            0   -572.56525   -26.588853 
 4655000    328.93759    2.0081289    837.35011    30981.006   -1270.8769    391.21969   -879.65718   -1499.0681    800.29106   -1270.8769            0            0            0            0            0   -572.09988   -27.134788 
 4660000    320.76327    32.202216    835.24643    31059.035    -1283.271    381.49762   -901.77333   -1511.0011    800.21353    -1283.271            0            0            0            0            0    -572.4834   -27.066618 
 4665000    327.60122    253.55405     828.5679    31309.382   -1244.1325    389.63029   -854.50224   -1474.3881    802.65456   -1244.1325            0            0            0            0            0   -572.39897   -26.850196 
 4670000    325.36279     270.4103    842.87037      30778.1   -1277.4618    386.96802   -890.49377   -1510.6476     805.6627   -1277.4618            0            0            0            0            0   -572.47692   -27.313675 
 4675000    329.02763    600.92904    816.08025    31788.477   -1193.0298    391.32677   -801.70299    -1424.173    803.54851   -1193.0298            0            0            0            0            0   -572.40523   -26.445527 
 4680000    307.66055    247.95509    814.79458    31838.637   -1208.0283    365.91398   -842.11431    -1441.392    805.60273   -1208.0283            0            0            0            0            0   -572.23899   -26.403864 
 4685000    306.50377    39.142889     828.2713    31320.593   -1247.2056    364.53818   -882.66744   -1478.0563      803.388   -1247.2056            0            0            0            0            0   -572.53727   -26.840584 
 4690000    314.96324   -365.32952     824.1079    31478.825   -1249.2589    374.59939   -874.65955   -1479.3679    802.57851   -1249.2589            0            0            0            0            0   -572.46951   -26.705667 
 4695000    334.94181   -161.00124    833.64175    31118.821   -1278.2708    398.36076   -879.91005   -1501.8028     795.8992   -1278.2708            0            0            0            0            0   -572.36724   -27.014617 
 4700000    330.57974   -595.04054    814.84727    31836.578   -1232.5451    393.17277    -839.3723    -1465.529    805.63111   -1232.5451            0            0            0            0            0   -572.64717   -26.405572 
 4705000    318.38393    276.99664    821.78501    31567.804     -1234.89    378.66776   -856.22219   -1465.8156    803.31865     -1234.89            0            0            0            0            0   -572.39299   -26.630393 
 4710000    322.90639    20.383817    839.94666    30885.233   -1278.9115    384.04652   -894.86493   -1515.2793    808.81706   -1278.9115            0            0            0            0            0   -572.44918   -27.218931 
 4715000    327.39385    144.57638      838.209     30949.26   -1269.6963    389.38366   -880.31263   -1498.6671    801.47497   -1269.6963            0            0            0            0            0   -572.50419   -27.162621 
 4720000    348.23115   -598.01996    828.24424    31321.617   -1275.7202    414.16635   -861.55381   -1509.4807    806.17031   -1275.7202            0            0            0            0            0   -572.40974   -26.839707 
 4725000    374.64168    75.087041    807.40063    32130.206   -1209.2578    445.57754   -763.68023   -1444.1231    807.29716   -1209.2578            0            0            0            0            0   -572.43183   -26.164259 
 4730000     344.5558    55.964725    828.59007    31308.544   -1256.7676     409.7951   -846.97252   -1485.0514    800.54251   -1256.7676            0            0            0            0            0   -572.25872   -26.850914 
 4735000    318.93811   -404.15378     830.5229    31235.681   -1283.5368    379.32688   -904.20997   -1506.0869    794.83764   -1283.5368            0            0            0            0            0   -572.28763   -26.913549 
 4740000    340.85543   -393.31715    815.80739     31799.11   -1235.3855    405.39409   -829.99142   -1462.8208    799.77058   -1235.3855            0            0            0            0            0   -572.33529   -26.436685 
 4745000    314.45248    77.406303    841.38789    30832.329   -1283.2177    373.99192   -909.22582    -1510.336    799.48195   -1283.2177            0            0            0            0            0   -572.36373   -27.265635 
 4750000    319.14291    -152.4873    814.44656    31852.242   -1220.6116    379.57046    -841.0411    -1458.094    809.93697   -1220.6116            0            0            0            0            0   -572.45452   -26.392586 
 4755000    321.06364   -207.45493    817.42764     31736.08   -1231.2404    381.85486   -849.38554   -1466.5211    807.74858   -1231.2404            0            0            0            0            0   -572.46784    -26.48919 
 4760000    349.16789    -412.5304    841.69431    30821.105   -1299.9132    415.28046   -884.63274   -1530.0934    802.50591   -1299.9132            0            0            0            0            0   -572.32573   -27.275564 
 4765000    306.26678    94.636976    835.27445    31057.994   -1268.3482    364.25632   -904.09191   -1497.2255    801.43125   -1268.3482            0            0            0            0            0   -572.55401   -27.067525 
 4770000    320.11439    80.240274    850.82429    30490.372    -1303.924    380.72588   -923.19811   -1531.2292    799.89527    -1303.924            0            0            0            0            0   -572.59002   -27.571426 
 4775000    333.92883    50.520655    825.06191    31442.427   -1226.6775    397.15599   -829.52146   -1460.2465    805.93835   -1226.6775            0            0            0            0            0   -572.36932   -26.736582 
 4780000    328.10979    117.36654    827.72896    31341.115   -1261.1164    390.23515   -870.88124   -1482.2357    793.45706   -1261.1164            0            0            0            0            0   -572.33774    -26.82301 
 4785000    324.32644   -58.663045    819.13796    31669.816   -1229.5038    385.73544   -843.76834   -1463.2034    806.15327   -1229.5038            0            0            0            0            0   -572.45365   -26.544614 
 4790000    323.65808    421.01964    841.89959     30813.59    -1272.669    384.94053   -887.72843   -1503.0897    802.89635    -1272.669            0            0            0            0            0   -572.47559   -27.282217 
 4795000     322.6351   -231.60398    828.74775    31302.587   -1267.4127    383.72387    -883.6888    -1497.764    802.74681   -1267.4127            0            0            0            0            0    -572.3955   -26.856024 
 4800000    321.90274    -213.5243    835.46365     31050.96   -1286.8018    382.85284   -903.94896   -1505.9814    791.68285   -1286.8018            0            0            0            0            0   -572.50329   -27.073656 
 4805000    290.77167   -172.73203     809.1085    32062.385   -1209.0103    345.82731   -863.18296    -1441.213    804.70286   -1209.0103            0            0            0            0            0   -572.50008   -26.219603 
 4810000    334.47531    53.783666    826.77585    31377.245   -1239.4543    397.80594   -841.64841   -1467.8801    800.92973   -1239.4543            0            0            0            0            0   -572.50397   -26.792124 
 4815000    341.48629   -274.45425    825.62039    31421.158   -1272.1025     406.1444   -865.95811   -1502.6932    802.95771   -1272.1025            0            0            0            0            0   -572.36702    -26.75468 
 4820000    311.40887   -62.858028    819.08986    31671.676   -1233.7319    370.37203   -863.35991   -1462.0227    800.60387   -1233.7319            0            0            0            0            0   -572.31314   -26.543055 
 4825000    331.74835    436.32798    829.44673    31276.208   -1235.0607    394.56265    -840.4981    -1465.357    802.73792   -1235.0607            0            0            0            0            0   -572.44169   -26.878675 
 4830000    314.40211   -325.14041    824.52432    31462.927   -1252.8717    373.93201   -878.93968   -1486.6733    806.19775   -1252.8717            0            0            0            0            0   -572.39616   -26.719162 
 4835000     308.3285    188.13434    819.28544    31664.115   -1205.4091     366.7084   -838.70071   -1442.5057    809.56954   -1205.4091            0            0            0            0            0   -572.47295   -26.549393 
 4840000    312.19366   -327.77093    850.21053    30512.382   -1322.1449    371.30541    -950.8395   -1548.4876    798.82169   -1322.1449            0            0            0            0            0   -572.47898   -27.551537 
 4845000    315.59082     6.228072    826.60565    31383.706   -1247.2256     375.3458    -871.8798   -1484.5344    809.40887   -1247.2256            0            0            0            0            0   -572.10008   -26.786608 
 4850000     320.9628     259.1609    821.60864    31574.581   -1231.9905    381.73493    -850.2556   -1460.6454    801.09736   -1231.9905            0            0            0            0            0   -572.44246   -26.624677 
 4855000    345.77505    153.20257    815.24777    31820.938   -1211.7238    411.24521   -800.47863   -1447.6534    808.25525   -1211.7238            0            0            0            0            0   -572.32569    -26.41855 
 4860000    338.89552    -217.4952    834.76181    31077.067   -1274.6101    403.06309   -871.54705   -1509.0873     807.0827   -1274.6101            0            0            0            0            0   -572.60559   -27.050913 
 4865000    338.79385    706.97815    835.13494    31063.182   -1247.4238    402.94217   -844.48164   -1475.4583    800.34978   -1247.4238            0            0            0            0            0   -572.31533   -27.063004 
 4870000    313.32926    171.19819    837.56018    30973.235   -1265.3496    372.65603    -892.6936   -1501.2791    808.31106   -1265.3496            0            0            0            0            0   -572.38162   -27.141596 
 4875000    319.51437   -310.44095    841.23791    30837.826   -1292.1564    380.01224   -912.14421   -1520.8295    801.13342   -1292.1564            0            0            0            0            0    -572.4604   -27.260774 
 4880000    338.85119   -214.26934    833.89976    31109.193    -1265.866    403.01036   -862.85559   -1499.4509    806.01156    -1265.866            0            0            0            0            0   -572.42661   -27.022978 
 4885000    329.58816    412.36443    830.46615    31237.816   -1235.2451    391.99344   -843.25161    -1465.128    802.23333   -1235.2451            0            0            0            0            0   -572.35043    -26.91171 
 4890000    323.87432   -124.28113    832.03421    31178.945   -1258.0458    385.19772   -872.84807   -1485.8193    800.41692   -1258.0458            0            0            0            0            0   -572.64339   -26.962524 
 4895000    343.25871   -275.61129    812.56921    31925.833   -1233.6207    408.25242   -825.36829    -1459.271    797.86792   -1233.6207            0            0            0            0            0   -572.21765    -26.33175 
 4900000     307.1625   -380.52318    805.91984    32189.242   -1221.2803    365.32163   -855.95871   -1457.0418    807.93071   -1221.2803            0            0            0            0            0   -572.16925   -26.116273 
 4905000     319.5018    18.423391    836.75248    31003.133   -1273.9963     379.9973   -893.99899   -1504.6386    802.71676   -1273.9963            0            0            0            0            0   -572.07446   -27.115422 
 4910000    342.28328   -166.64873    834.42596    31089.575   -1268.5971     407.0923   -861.50476   -1503.6498    807.47112   -1268.5971            0            0            0            0            0   -572.41838    -27.04003 
 4915000    337.58384    188.31364    820.77842    31606.519   -1233.4221    401.50304   -831.91903   -1463.4085    801.99972   -1233.4221            0            0            0            0            0   -572.01328   -26.597774 
 4920000    312.04228    185.10896    832.46614    31162.767     -1255.37    371.12537   -884.24466   -1483.8546      800.443     -1255.37            0            0            0            0            0   -571.95844   -26.976521 
 4925000    327.41224    160.89283    849.92644    30522.581   -1303.4054    389.40552   -913.99988   -1537.3565    806.43161   -1303.4054            0            0            0            0            0   -572.48051   -27.542331 
 4930000    305.56195    280.75661    830.61344    31232.277    -1244.116    363.41803   -880.69799   -1471.5809    800.07278    -1244.116            0            0            0            0            0    -572.6079   -26.916483 
 4935000    330.36783     4.904168    806.04079    32184.412   -1210.3566    392.92073   -817.43589   -1436.7757    798.64277   -1210.3566            0            0            0            0            0    -572.2237   -26.120192 
 4940000    323.45172    19.374037    820.28676    31625.463   -1237.6613    384.69511   -852.96618   -1459.9107    794.73022   -1237.6613            0            0            0            0            0   -572.48083   -26.581841 
 4945000    313.56424   -287.53232     827.0309    31367.569   -1263.9516     372.9355   -891.01615   -1489.2308    797.71142   -1263.9516            0            0            0            0            0    -572.4323   -26.800389 
 4950000    328.01626   -66.065728    819.04578     31673.38   -1236.2496    390.12391   -846.12568   -1466.0987    801.97769   -1236.2496            0            0            0            0            0   -572.12854   -26.541626 
 4955000    342.18207   -275.04976    834.88341     31072.54   -1284.1407    406.97192   -877.16876   -1508.9742      797.123   -1284.1407            0            0            0            0            0    -572.2895   -27.054854 
 4960000    331.91346   -171.14189    834.21217    31097.543   -1285.9864    394.75902   -891.22741   -1515.7225    802.19174   -1285.9864            0            0            0            0            0   -572.45567   -27.033102 
 4965000    342.98024     80.21509    826.07013    31404.051   -1250.3659    407.92122   -842.44469    -1479.364    801.41318   -1250.3659            0            0            0            0            0   -572.41511   -26.769254 
 4970000    315.09692   -326.18099     835.1808    31061.476   -1276.2299    374.75839   -901.47155   -1504.6761    801.07687   -1276.2299            0            0            0            0            0   -572.63072    -27.06449 
 4975000    309.83613   -364.94778    817.61166    31728.937   -1232.5155     368.5015   -864.01403   -1469.6983    809.40597   -1232.5155            0            0            0            0            0   -572.22319   -26.495153 
 4980000    332.69515    -230.9575    829.28657    31282.248   -1264.7938    395.68872   -869.10506   -1491.1409    798.85663   -1264.7938            0            0            0            0            0   -572.50947   -26.873485 
 4985000    322.67748   -315.96308    825.80323    31414.201   -1259.3778    383.77427   -875.60348    -1490.129      803.158   -1259.3778            0            0            0            0            0   -572.40674   -26.760605 
 4990000    354.36311   -77.280023    810.84083    31993.886   -1217.3814    421.45936   -795.92205   -1444.8072    800.05594   -1217.3814            0            0            0            0            0   -572.63018    -26.27574 
 4995000    305.27536    228.75265    842.14433    30804.635   -1285.9755    363.07718   -922.89828   -1510.5565     797.0482   -1285.9755            0            0            0            0            0    -572.4672   -27.290148 
 5000000    314.07123   -231.66674    833.65589    31118.293   -1274.5097    373.53848   -900.97124   -1504.5387    802.72213   -1274.5097            0            0            0            0            0   -572.69311   -27.015075 
Loop time of 166632 on 1 procs for 5000000 steps with 2400 atoms

Performance: 2.593 ns/day, 9.257 hours/ns, 30.006 timesteps/s
100.0% CPU use with 1 MPI tasks x 1 OpenMP threads

MPI task timing breakdown:
Section |  min time  |  avg time  |  max time  |%varavg| %total
---------------------------------------------------------------
Pair    | 1.5356e+05 | 1.5356e+05 | 1.5356e+05 |   0.0 | 92.16
Bond    | 8.5172     | 8.5172     | 8.5172     |   0.0 |  0.01
Kspace  | 4925.5     | 4925.5     | 4925.5     |   0.0 |  2.96
Neigh   | 4700       | 4700       | 4700       |   0.0 |  2.82
Comm    | 525.97     | 525.97     | 525.97     |   0.0 |  0.32
Output  | 0.061878   | 0.061878   | 0.061878   |   0.0 |  0.00
Modify  | 2784.4     | 2784.4     | 2784.4     |   0.0 |  1.67
Other   |            | 127.4      |            |       |  0.08

Nlocal:        2400.00 ave        2400 max        2400 min
Histogram: 1 0 0 0 0 0 0 0 0 0
Nghost:        18542.0 ave       18542 max       18542 min
Histogram: 1 0 0 0 0 0 0 0 0 0
Neighs:    1.78714e+06 ave 1.78714e+06 max 1.78714e+06 min
Histogram: 1 0 0 0 0 0 0 0 0 0

Total # of neighbors = 1787135
Ave neighs/atom = 744.63958
Ave special neighs/atom = 8.5000000
Neighbor list builds = 82017
Dangerous builds = 0
Total wall time: 55:32:27
