LAMMPS (29 Sep 2021 - Update 2)
OMP_NUM_THREADS environment is not set. Defaulting to 1 thread. (src/comm.cpp:98)
  using 1 OpenMP thread(s) per MPI task
Reading data file ...
  orthogonal box = (-15.466318 -15.466318 -15.466318) to (15.466318 15.466318 15.466318)
  1 by 1 by 1 MPI processor grid
  reading atoms ...
  2400 atoms
  scanning bonds ...
  3 = max bonds/atom
  scanning angles ...
  3 = max angles/atom
  scanning dihedrals ...
  4 = max dihedrals/atom
  reading bonds ...
  2400 bonds
  reading angles ...
  3600 angles
  reading dihedrals ...
  3600 dihedrals
Finding 1-2 1-3 1-4 neighbors ...
  special bond factors lj:    0        0        0       
  special bond factors coul:  0        0        0       
     3 = max # of 1-2 neighbors
     4 = max # of 1-3 neighbors
     8 = max # of 1-4 neighbors
    10 = max # of special neighbors
  special bonds CPU = 0.001 seconds
  read_data CPU = 0.015 seconds
  200 rigid bodies with 2400 atoms
PPPM initialization ...
  using 12-bit tables for long-range coulomb (src/kspace.cpp:340)
  G vector (1/distance) = 0.1428774
  grid = 6 6 6
  stencil order = 5
  estimated absolute RMS force accuracy = 0.0078609937
  estimated relative force accuracy = 2.3673149e-05
  using double precision FFTW3
  3d grid and FFT values/proc = 1331 216
Neighbor list info ...
  update every 1 steps, delay 10 steps, check yes
  max neighbors/atom: 2000, page size: 100000
  master list distance cutoff = 16.655
  ghost atom cutoff = 16.655
  binsize = 8.3275, bins = 4 4 4
  1 neighbor lists, perpetual/occasional/extra = 1 0 0
  (1) pair lj/cut/coul/long, perpetual
      attributes: half, newton on
      pair build: half/bin/newton
      stencil: half/bin/3d
      bin: standard
Setting up Verlet run ...
  Unit style    : real
  Current step  : 0
  Time step     : 1
Per MPI rank memory allocation (min/avg/max) = 29.12 | 29.12 | 29.12 Mbytes
Step Temp E_pair E_mol TotEng Press 
       0    322.29285     12647.25            0    13030.567    97051.029 
    5000    9652.9286     1537.663            0    13018.308    70611.296 
Loop time of 196.07 on 1 procs for 5000 steps with 2400 atoms

Performance: 2.203 ns/day, 10.893 hours/ns, 25.501 timesteps/s
100.0% CPU use with 1 MPI tasks x 1 OpenMP threads

MPI task timing breakdown:
Section |  min time  |  avg time  |  max time  |%varavg| %total
---------------------------------------------------------------
Pair    | 162.76     | 162.76     | 162.76     |   0.0 | 83.01
Bond    | 0.0048642  | 0.0048642  | 0.0048642  |   0.0 |  0.00
Kspace  | 4.9508     | 4.9508     | 4.9508     |   0.0 |  2.53
Neigh   | 26.784     | 26.784     | 26.784     |   0.0 | 13.66
Comm    | 0.70354    | 0.70354    | 0.70354    |   0.0 |  0.36
Output  | 3.083e-05  | 3.083e-05  | 3.083e-05  |   0.0 |  0.00
Modify  | 0.76222    | 0.76222    | 0.76222    |   0.0 |  0.39
Other   |            | 0.1008     |            |       |  0.05

Nlocal:        2400.00 ave        2400 max        2400 min
Histogram: 1 0 0 0 0 0 0 0 0 0
Nghost:        19053.0 ave       19053 max       19053 min
Histogram: 1 0 0 0 0 0 0 0 0 0
Neighs:    1.88123e+06 ave 1.88123e+06 max 1.88123e+06 min
Histogram: 1 0 0 0 0 0 0 0 0 0

Total # of neighbors = 1881234
Ave neighs/atom = 783.84750
Ave special neighs/atom = 8.5000000
Neighbor list builds = 437
Dangerous builds = 93
  create bodies CPU = 0.000 seconds
  200 rigid bodies with 2400 atoms
  3.8930168 = max distance from body owner to body atom
PPPM initialization ...
  using 12-bit tables for long-range coulomb (src/kspace.cpp:340)
  G vector (1/distance) = 0.1428774
  grid = 6 6 6
  stencil order = 5
  estimated absolute RMS force accuracy = 0.0078609937
  estimated relative force accuracy = 2.3673149e-05
  using double precision FFTW3
  3d grid and FFT values/proc = 1331 216
Setting up Verlet run ...
  Unit style    : real
  Current step  : 5000
  Time step     : 1
Per MPI rank memory allocation (min/avg/max) = 37.02 | 37.02 | 37.02 Mbytes
Step Temp E_pair E_mol TotEng Press Volume 
    5000    9652.9286     1537.663            0    13018.308    93319.199    29597.212 
 1005000    331.24077   -1260.7073            0   -866.74838   -229.13019     31383.34 
Loop time of 32577 on 1 procs for 1000000 steps with 2400 atoms

Performance: 2.652 ns/day, 9.049 hours/ns, 30.697 timesteps/s
100.0% CPU use with 1 MPI tasks x 1 OpenMP threads

MPI task timing breakdown:
Section |  min time  |  avg time  |  max time  |%varavg| %total
---------------------------------------------------------------
Pair    | 29977      | 29977      | 29977      |   0.0 | 92.02
Bond    | 1.6988     | 1.6988     | 1.6988     |   0.0 |  0.01
Kspace  | 981.72     | 981.72     | 981.72     |   0.0 |  3.01
Neigh   | 937.12     | 937.12     | 937.12     |   0.0 |  2.88
Comm    | 103        | 103        | 103        |   0.0 |  0.32
Output  | 3.1443e-05 | 3.1443e-05 | 3.1443e-05 |   0.0 |  0.00
Modify  | 551.78     | 551.78     | 551.78     |   0.0 |  1.69
Other   |            | 24.94      |            |       |  0.08

Nlocal:        2400.00 ave        2400 max        2400 min
Histogram: 1 0 0 0 0 0 0 0 0 0
Nghost:        18487.0 ave       18487 max       18487 min
Histogram: 1 0 0 0 0 0 0 0 0 0
Neighs:    1.77579e+06 ave 1.77579e+06 max 1.77579e+06 min
Histogram: 1 0 0 0 0 0 0 0 0 0

Total # of neighbors = 1775792
Ave neighs/atom = 739.91333
Ave special neighs/atom = 8.5000000
Neighbor list builds = 16549
Dangerous builds = 1
PPPM initialization ...
  using 12-bit tables for long-range coulomb (src/kspace.cpp:340)
  G vector (1/distance) = 0.14160595
  grid = 6 6 6
  stencil order = 5
  estimated absolute RMS force accuracy = 0.0082522819
  estimated relative force accuracy = 2.4851502e-05
  using double precision FFTW3
  3d grid and FFT values/proc = 1331 216
Setting up Verlet run ...
  Unit style    : real
  Current step  : 0
  Time step     : 1
Per MPI rank memory allocation (min/avg/max) = 37.02 | 37.02 | 37.02 Mbytes
Step Temp Press v_dens Volume PotEng KinEng TotEng E_vdwl E_coul E_pair E_bond E_angle E_dihed E_impro E_mol E_long E_tail 
       0    331.24077    910.80309    826.61528     31383.34   -1260.7473    393.95896   -866.78831   -1494.5557    807.52832   -1260.7473            0            0            0            0            0   -573.71991    -26.78692 
    5000    334.88825    441.34609    847.12563    30623.496   -1286.0905    398.29707   -887.79342   -1509.7894    797.42283   -1286.0905            0            0            0            0            0   -573.72395   -27.451569 
   10000     309.9382    97.300832    832.58111    31158.464   -1269.1246    368.62289   -900.50174   -1494.4387    798.81277   -1269.1246            0            0            0            0            0   -573.49866   -26.980246 
   15000    331.10574     504.2804    840.68965    30857.937   -1263.4735    393.79837   -869.67513   -1488.4221    798.60069   -1263.4735            0            0            0            0            0   -573.65204   -27.243008 
   20000    326.16472   -122.78431    811.54349    31966.184   -1207.1986     387.9218   -819.27681   -1438.8055    805.36807   -1207.1986            0            0            0            0            0   -573.76121   -26.298511 
   25000    338.11754   -192.21933    820.28674    31625.464   -1233.7305     402.1378   -831.59274   -1463.2736    803.40301   -1233.7305            0            0            0            0            0   -573.85995    -26.58184 
   30000    335.10122   -175.37692    806.33393    32172.711   -1201.7506    398.55036   -803.20025   -1434.4893    806.47078   -1201.7506            0            0            0            0            0   -573.73208   -26.129692 
   35000    333.40461    190.26832    818.96294    31676.584   -1214.8843    396.53251   -818.35183   -1452.4752    811.28037   -1214.8843            0            0            0            0            0   -573.68948   -26.538942 
   40000    317.25182     6.230209    816.85912    31758.168   -1211.0613     377.3213   -833.73995   -1443.2083    805.80602   -1211.0613            0            0            0            0            0   -573.65893   -26.470766 
   45000    328.05008    240.50942      833.108    31138.758   -1253.8182    390.16414   -863.65408   -1481.1557    800.94511   -1253.8182            0            0            0            0            0    -573.6076    -26.99732 
   50000    314.29835    234.57476    850.30537    30508.979   -1296.1988    373.80861    -922.3902     -1529.13    806.72017   -1296.1988            0            0            0            0            0   -573.78901   -27.554611 
   55000    337.34789      312.887    820.49963    31617.258   -1231.9216    401.22242    -830.6992   -1459.1528    800.92189   -1231.9216            0            0            0            0            0   -573.69073   -26.588739 
   60000    322.73486    43.631723    821.87848    31564.214   -1223.3594    383.84252   -839.51692   -1457.4339     807.8978   -1223.3594            0            0            0            0            0   -573.82332   -26.633422 
   65000    353.90292    149.48257    823.25139    31511.576   -1225.5992    420.91203   -804.68715    -1460.115    808.07141   -1225.5992            0            0            0            0            0   -573.55557   -26.677912 
   70000     323.5865    390.84905    829.21812    31284.831   -1236.0024    384.85541   -851.14701   -1465.0431    802.58696   -1236.0024            0            0            0            0            0   -573.54626   -26.871267 
   75000    342.30031    25.398202    803.45745    32287.893   -1200.2155    407.11255   -793.10296   -1430.1777    803.51166   -1200.2155            0            0            0            0            0    -573.5495   -26.036478 
   80000    328.96583    205.42526    818.38084    31699.115    -1224.916    391.25328   -833.66274   -1456.0187    804.70487    -1224.916            0            0            0            0            0   -573.60224   -26.520079 
   85000    330.12726    71.025699    859.41778    30185.492   -1331.3921    392.63462   -938.75746   -1556.3089    798.42607   -1331.3921            0            0            0            0            0   -573.50927   -27.849903 
   90000     334.0382    519.32208    847.71458    30602.221    -1286.714    397.28606   -889.42793   -1513.6649    800.44559    -1286.714            0            0            0            0            0   -573.49472   -27.470654 
   95000    334.02165   -49.241712    820.55993    31614.935   -1233.1649    397.26638   -835.89852   -1476.4404    816.66775   -1233.1649            0            0            0            0            0   -573.39229   -26.590693 
  100000    326.44506   -191.76691    827.36954     31354.73   -1255.2978    388.25522   -867.04256   -1494.2932    812.75793   -1255.2978            0            0            0            0            0   -573.76252   -26.811362 
  105000    337.55751    384.87577    821.55981    31576.458   -1219.2047    401.47173   -817.73292   -1456.8831    811.30235   -1219.2047            0            0            0            0            0   -573.62394   -26.623095 
  110000    321.72649   -281.24292    812.79963    31916.782   -1213.1628    382.64321   -830.51956   -1447.6069    808.20107   -1213.1628            0            0            0            0            0   -573.75693   -26.339216 
  115000    337.06187    113.72691    830.37413    31241.277    -1262.502    400.88225   -861.61972   -1492.5325     803.4411    -1262.502            0            0            0            0            0   -573.41061   -26.908728 
  120000    354.43143    -161.9048     805.7718    32195.156   -1199.1259    421.54062   -777.58528   -1432.8233    807.32894   -1199.1259            0            0            0            0            0   -573.63155   -26.111476 
  125000    328.41469     -334.943     827.3464    31355.607   -1261.8628    390.59779   -871.26505   -1492.0104    803.63711   -1261.8628            0            0            0            0            0   -573.48957   -26.810612 
  130000    334.32721    7.1353787    817.63291    31728.112   -1216.1942    397.62979   -818.56437   -1454.4778     811.8028   -1216.1942            0            0            0            0            0   -573.51916   -26.495842 
  135000    329.45359    222.50248    838.18571    30950.121   -1267.2246    391.83339   -875.39125   -1496.1386    802.26425   -1267.2246            0            0            0            0            0   -573.35033   -27.161866 
  140000    330.26193    37.685774    813.90753    31873.336   -1209.1046    392.79478   -816.30984   -1439.9296    804.59976   -1209.1046            0            0            0            0            0   -573.77483   -26.375119 
  145000    325.32595   -274.92658    819.43544    31658.319   -1245.3415    386.92421   -858.41728   -1475.8268    804.25633   -1245.3415            0            0            0            0            0   -573.77104   -26.554254 
  150000    345.58312   -26.566732     838.5617    30936.243   -1284.4858    411.01694    -873.4689   -1514.9376    804.01649   -1284.4858            0            0            0            0            0    -573.5647   -27.174051 
  155000    322.14525     387.3809    829.17283     31286.54   -1239.0549    383.14127   -855.91362   -1474.5557    809.00506   -1239.0549            0            0            0            0            0    -573.5043   -26.869799 
  160000    329.58795    301.62623     826.4897    31388.109   -1234.3882    391.99318   -842.39503   -1459.5201    799.01408   -1234.3882            0            0            0            0            0   -573.88223   -26.782851 
  165000    350.83456    -47.94065    833.43185    31126.658   -1271.6366     417.2627   -854.37386   -1498.9782    800.90524   -1271.6366            0            0            0            0            0   -573.56359   -27.007815 
  170000    328.11723    224.31637    850.12123    30515.587   -1297.1848      390.244   -906.94083    -1531.591    808.17556   -1297.1848            0            0            0            0            0   -573.76943   -27.548644 
  175000     339.9786    554.88404    826.77766    31377.177    -1228.142    404.35124   -823.79079   -1459.6493    805.31768    -1228.142            0            0            0            0            0   -573.81037   -26.792182 
  180000    320.54358    -99.99847    819.88007     31641.15   -1224.6802    381.23633   -843.44385   -1458.5225    807.51639   -1224.6802            0            0            0            0            0   -573.67409   -26.568662 
  185000    339.78863   -124.43151    823.12361    31516.468   -1234.7602     404.1253    -830.6349   -1464.4943    803.43575   -1234.7602            0            0            0            0            0   -573.70167   -26.673771 
  190000    301.68566     405.5583    847.70312    30602.634   -1285.0229    358.80779   -926.21509   -1517.7786    806.15778   -1285.0229            0            0            0            0            0   -573.40205   -27.470283 
  195000    331.19418    72.605278    830.72739    31227.992   -1259.5593    393.90355   -865.65576   -1485.5041    799.79621   -1259.5593            0            0            0            0            0   -573.85139   -26.920175 
  200000    325.29865    173.68912    829.09856    31289.342   -1254.2346    386.89175    -867.3429    -1483.009    802.29353   -1254.2346            0            0            0            0            0   -573.51918   -26.867392 
  205000    319.37822    284.01462    841.88135    30814.257   -1280.9083    379.85032   -901.05801   -1513.4511    806.21927   -1280.9083            0            0            0            0            0   -573.67645   -27.281626 
  210000    340.25829    -273.9261    812.43312     31931.18   -1220.0644    404.68389   -815.38049     -1449.68    803.06544   -1220.0644            0            0            0            0            0   -573.44986    -26.32734 
  215000    328.43469    329.75901    842.60607    30787.754   -1280.8224    390.62157    -890.2008   -1514.1153    806.92418   -1280.8224            0            0            0            0            0   -573.63123   -27.305111 
  220000    329.19995   -183.35484    812.66537    31922.055   -1214.5732    391.53173   -823.04143   -1453.6094    812.69195   -1214.5732            0            0            0            0            0   -573.65572   -26.334866 
  225000    324.30608   -16.133321    804.48979    32246.461   -1193.5381    385.71124   -807.82684   -1433.5038    813.47207   -1193.5381            0            0            0            0            0   -573.50632   -26.069932 
  230000    327.30813    -147.7736    828.91443    31296.293   -1251.7709     389.2817   -862.48921   -1486.7966    808.99811   -1251.7709            0            0            0            0            0    -573.9724   -26.861425 
  235000    337.61626   -332.51267     811.7944    31956.304   -1215.3303    401.54161   -813.78869   -1439.5922    798.06138   -1215.3303            0            0            0            0            0   -573.79948   -26.306642 
  240000    309.41866    365.81999    818.46363    31695.909   -1214.8273    368.00498   -846.82235   -1444.1816    803.13126   -1214.8273            0            0            0            0            0   -573.77694   -26.522762 
  245000    329.25229    564.87181    820.12568    31631.674   -1216.9189    391.59397   -825.32495   -1446.4862    802.83203   -1216.9189            0            0            0            0            0   -573.26477   -26.576621 
  250000    319.70883   -477.85641    808.21289    32097.915   -1216.3318    380.24353   -836.08829   -1451.1654    808.51126   -1216.3318            0            0            0            0            0   -573.67763   -26.190581 
  255000    349.90567    227.97545    821.68172    31571.773   -1227.3747    416.15793   -811.21681   -1457.2957    803.67081   -1227.3747            0            0            0            0            0   -573.74986   -26.627045 
  260000    326.30518    281.57032    828.56041    31309.665    -1254.288    388.08885   -866.19919   -1480.4103    799.74388    -1254.288            0            0            0            0            0   -573.62164   -26.849953 
  265000    338.43506   -232.41089    814.57988    31847.029   -1218.6763    402.51545   -816.16082    -1459.065    814.19413   -1218.6763            0            0            0            0            0    -573.8054   -26.396906 
  270000     333.1403    208.33588    832.28546    31169.532   -1252.5861    396.21815   -856.36793   -1478.6393    799.84832   -1252.5861            0            0            0            0            0   -573.79513   -26.970665 
  275000    326.51951   -945.41101    794.25836    32661.852   -1190.5607    388.34376   -802.21691   -1430.6447    813.61917   -1190.5607            0            0            0            0            0   -573.53518   -25.738376 
  280000    340.77283   -147.61297    819.58609      31652.5    -1239.285    405.29585   -833.98919    -1469.435     803.8745    -1239.285            0            0            0            0            0   -573.72458   -26.559135 
  285000    336.41942    87.801891    831.27511    31207.417   -1262.3054    400.11815   -862.18728   -1492.8915    804.18949   -1262.3054            0            0            0            0            0   -573.60342   -26.937924 
  290000    330.34182   -109.99018    825.84269      31412.7   -1248.0063     392.8898    -855.1165   -1475.9935    801.59332   -1248.0063            0            0            0            0            0   -573.60612   -26.761884 
  295000    329.40288    102.80994    828.63639    31306.794   -1251.5757    391.77308   -859.80263   -1474.5727    796.90461   -1251.5757            0            0            0            0            0   -573.90764   -26.852415 
  300000    320.10966    162.51542    815.20963    31822.427   -1215.3231    380.72025   -834.60282   -1441.3654    799.70975   -1215.3231            0            0            0            0            0   -573.66743   -26.417314 
  305000    335.07632    81.933282     817.9417    31716.134   -1233.8781    398.52074   -835.35734   -1470.2721    809.68014   -1233.8781            0            0            0            0            0   -573.28616   -26.505848 
  310000    340.69952   -436.96946    804.42397      32249.1   -1190.3469    405.20866   -785.13819   -1432.8154    816.29491   -1190.3469            0            0            0            0            0   -573.82635   -26.067799 
  315000    333.46662   -41.358207    818.23484    31704.771    -1230.954    396.60626   -834.34771   -1458.8236    801.56221    -1230.954            0            0            0            0            0   -573.69261   -26.515348 
  320000    331.80119    89.493184    800.72306    32398.154   -1177.3206    394.62549   -782.69512    -1420.181    816.29906   -1177.3206            0            0            0            0            0   -573.43866   -25.947869 
  325000    329.17112   -132.81593      830.431    31239.138   -1260.6883    391.49744   -869.19087   -1490.9253    803.97738   -1260.6883            0            0            0            0            0   -573.74037   -26.910571 
  330000    323.78236    309.70067    837.81399    30963.852   -1262.0153    385.08835   -876.92695   -1493.7372    805.62337   -1262.0153            0            0            0            0            0   -573.90151   -27.149821 
  335000    341.13835   -121.53367    830.70586    31228.802   -1257.1144    405.73058   -851.38378     -1492.59    809.12576   -1257.1144            0            0            0            0            0   -573.65015   -26.919478 
  340000    330.13267   -213.29529    818.42078    31697.568   -1239.7301    392.64105   -847.08904    -1469.052    803.21077   -1239.7301            0            0            0            0            0   -573.88885   -26.521373 
  345000    332.49981    403.13031    817.37572    31738.095   -1207.3729    395.45639   -811.91655   -1431.1725    797.38598   -1207.3729            0            0            0            0            0   -573.58645   -26.487507 
  350000    302.96096   -336.25116    810.89996    31991.552   -1219.8941    360.32456   -859.56951   -1450.2614    803.94923   -1219.8941            0            0            0            0            0   -573.58185   -26.277657 
  355000    318.33963   -82.108266    814.34609    31856.171   -1236.0114    378.61508   -857.39632   -1460.6062    798.26031   -1236.0114            0            0            0            0            0    -573.6655    -26.38933 
  360000    340.01296    173.70099    807.53679    32124.789    -1194.155     404.3921   -789.76291   -1424.6887    804.17548    -1194.155            0            0            0            0            0   -573.64183   -26.168671 
  365000    330.54274    45.244402    813.83156    31876.312   -1222.4978    393.12877   -829.36905   -1449.8829    801.26872   -1222.4978            0            0            0            0            0   -573.88361   -26.372657 
  370000    346.51748    410.14185    833.64358    31118.753   -1244.6848    412.12821   -832.55654   -1476.0387    805.27503   -1244.6848            0            0            0            0            0   -573.92111   -27.014676 
  375000    327.74025   -256.78316    817.55504    31731.134   -1235.4248    389.79564    -845.6292   -1464.5355     802.8778   -1235.4248            0            0            0            0            0   -573.76711   -26.493318 
  380000    362.77133    258.83945    823.53083    31500.884   -1236.8599    431.45962   -805.40028    -1466.602    803.56725   -1236.8599            0            0            0            0            0   -573.82512   -26.686967 
  385000    341.43497     -413.105    816.32703    31778.868   -1226.4053    406.08337   -820.32194   -1462.2793    809.44062   -1226.4053            0            0            0            0            0    -573.5666   -26.453524 
  390000    322.02637   -102.58356     820.3312     31623.75   -1226.0709    382.99987   -843.07102   -1461.0102    808.44104   -1226.0709            0            0            0            0            0   -573.50174   -26.583281 
  395000    328.01926   -12.900496    822.49263    31540.646   -1244.2594    390.12748   -854.13195    -1468.261    797.82216   -1244.2594            0            0            0            0            0   -573.82061   -26.653323 
  400000    332.21685    73.888763    835.18963    31061.148   -1266.7471    395.11985   -871.62729   -1498.2224    805.20636   -1266.7471            0            0            0            0            0   -573.73114   -27.064777 
  405000    319.22241   -97.181268    841.08807     30843.32   -1286.3598      379.665   -906.69475   -1517.2476    804.54403   -1286.3598            0            0            0            0            0   -573.65614   -27.255919 
  410000    334.75339   -128.11471    813.29849    31897.205   -1216.7828    398.13667   -818.64613    -1450.264    807.12831   -1216.7828            0            0            0            0            0   -573.64714   -26.355382 
  415000    325.90958     117.8244    834.86692    31073.154   -1271.7261    387.61835   -884.10772   -1504.5351    806.36763   -1271.7261            0            0            0            0            0   -573.55859   -27.054319 
  420000    310.14617   -60.004403    820.08681    31633.174   -1222.9622    368.87024   -854.09191   -1455.0992    805.78538   -1222.9622            0            0            0            0            0   -573.64836   -26.575362 
  425000    329.73443   -513.43783    815.88249    31796.183   -1239.1737    392.16741    -847.0063   -1471.5934    806.01454   -1239.1737            0            0            0            0            0   -573.59484   -26.439118 
  430000    318.17718     504.7939    832.48318    31162.129   -1245.2613    378.42187   -866.83942   -1479.9989    808.15062   -1245.2613            0            0            0            0            0   -573.41304   -26.977073 
  435000    308.99736   -8.6264875    826.47363    31388.719   -1252.9584    367.50391   -885.45444    -1481.722    802.32281   -1252.9584            0            0            0            0            0   -573.55915    -26.78233 
  440000    321.63129    202.14597    820.78121    31606.411    -1223.262    382.52999     -840.732   -1453.2265      803.605    -1223.262            0            0            0            0            0   -573.64054   -26.597864 
  445000    327.90964   -288.51086    816.73408    31763.029    -1233.776    389.99711   -843.77889   -1470.9902    810.78119    -1233.776            0            0            0            0            0     -573.567   -26.466715 
  450000     336.8137    635.69064     839.8457    30888.946   -1255.5016    400.58709   -854.91449   -1496.1821    814.34903   -1255.5016            0            0            0            0            0   -573.66854   -27.215659 
  455000    340.39676   -145.90305    826.18076    31399.846    -1261.577    404.84858   -856.72843   -1488.6575    800.61716    -1261.577            0            0            0            0            0   -573.53663   -26.772839 
  460000     332.4451   -330.94559    809.64769    32041.033   -1212.1587    395.39132   -816.76739   -1447.8082    809.39909   -1212.1587            0            0            0            0            0   -573.74963   -26.237076 
  465000    326.14372    396.27186    850.52866    30500.969   -1291.8641    387.89681   -903.96725   -1524.0289    805.59234   -1291.8641            0            0            0            0            0   -573.42745   -27.561846 
  470000    311.38729   -486.00989    826.14451    31401.224   -1264.6982    370.34636   -894.35183   -1494.0658    802.88616   -1264.6982            0            0            0            0            0   -573.51854   -26.771665 
  475000      323.023    156.05342    824.25768    31473.105    -1237.999    384.18521   -853.81377   -1463.0107     798.4952    -1237.999            0            0            0            0            0   -573.48347   -26.710521 
  480000    342.21628   -686.77894    807.70878    32117.948   -1227.1486    407.01261   -820.13603   -1459.2976    805.64166   -1227.1486            0            0            0            0            0   -573.49274   -26.174245 
  485000    325.30364    455.29256    820.12173    31631.827   -1201.2133    386.89767   -814.31567   -1441.6427    814.03447   -1201.2133            0            0            0            0            0   -573.60513   -26.576493 
  490000    344.38964   -294.48452    805.99584    32186.206   -1205.6245    409.59748   -796.02702   -1436.8787    805.12139   -1205.6245            0            0            0            0            0   -573.86717   -26.118736 
  495000     315.2061   -121.56767    807.75146    32116.251   -1212.2151    374.88823   -837.32689   -1448.9447     809.9506   -1212.2151            0            0            0            0            0   -573.22106   -26.175628 
  500000    314.34297   -53.063065    803.33659    32292.751     -1197.31    373.86168   -823.44837   -1430.7573    807.19412     -1197.31            0            0            0            0            0    -573.7469   -26.032562 
  505000    316.60954     142.0074    831.99432     31180.44   -1265.3557    376.55741   -888.79826   -1490.6748    799.06496   -1265.3557            0            0            0            0            0   -573.74583   -26.961231 
  510000    339.80007   -240.68951    823.49688    31502.182   -1242.2691    404.13891   -838.13018   -1476.0817    807.51899   -1242.2691            0            0            0            0            0   -573.70638   -26.685867 
  515000    328.04502   -189.20146    815.21847    31822.081   -1235.9859    390.15812   -845.82782   -1462.2055    799.85997   -1235.9859            0            0            0            0            0   -573.64041     -26.4176 
  520000    341.42774    119.94532    824.06252    31480.559   -1241.5474    406.07476    -835.4726   -1465.9734    798.22141   -1241.5474            0            0            0            0            0   -573.79538   -26.704197 
  525000    338.68182   -63.244378     812.3927    31932.769   -1223.7114    402.80893   -820.90247   -1454.8927    804.72828   -1223.7114            0            0            0            0            0     -573.547    -26.32603 
  530000    309.66081    125.00125     828.2611    31320.979   -1255.2813    368.29298   -886.98827   -1484.0148    802.18145   -1255.2813            0            0            0            0            0   -573.44792   -26.840254 
  535000    312.93033   -2.5716855    838.67425    30932.091   -1286.9818    372.18156   -914.80027   -1512.3944    799.05709   -1286.9818            0            0            0            0            0    -573.6445   -27.177698 
  540000    347.16665    548.69813    822.73529    31531.343    -1211.981    412.90029   -799.08074   -1444.3855    806.24929    -1211.981            0            0            0            0            0   -573.84483   -26.661187 
  545000    326.99987    366.85295    824.06565    31480.439   -1226.0214    388.91507    -837.1063   -1457.2716    805.05668   -1226.0214            0            0            0            0            0   -573.80645   -26.704298 
  550000    302.23704    82.128621    817.04957    31750.765   -1223.4165    359.46358   -863.95294   -1452.2849    802.74855   -1223.4165            0            0            0            0            0   -573.88016   -26.476938 
  555000    324.56168   -60.363699    804.74777    32236.123   -1188.5403    386.01523   -802.52511    -1426.596    811.86897   -1188.5403            0            0            0            0            0   -573.81336   -26.078292 
  560000    328.38653    41.322925    832.35794    31166.818   -1262.5512    390.56429   -871.98694   -1489.5841    800.73781   -1262.5512            0            0            0            0            0   -573.70499   -26.973014 
  565000    350.40941   -461.67137    825.89353    31410.766   -1261.8453    416.75705   -845.08827   -1498.3292    809.99438   -1261.8453            0            0            0            0            0   -573.51051   -26.763531 
  570000    313.34196    277.42928    820.45036    31619.157   -1227.4568    372.67114   -854.78569   -1449.8667    796.26435   -1227.4568            0            0            0            0            0   -573.85449   -26.587142 
  575000     332.3863    609.93097    840.59861    30861.279   -1252.1266    395.32138    -856.8052   -1483.2756    804.70499   -1252.1266            0            0            0            0            0   -573.55599   -27.240058 
  580000    334.99476    -25.32426    812.89723     31912.95   -1210.7974    398.42374   -812.37363   -1447.6485    810.28805   -1210.7974            0            0            0            0            0   -573.43695   -26.342379 
  585000    340.79259    303.45651    809.35801    32052.501   -1195.5024    405.31935   -790.18305   -1428.9852    807.04116   -1195.5024            0            0            0            0            0   -573.55835   -26.227689 
  590000    315.71857    97.990033    837.76106    30965.808   -1268.7901    375.49774   -893.29241   -1501.2431    806.11061   -1268.7901            0            0            0            0            0   -573.65765   -27.148105 
  595000    324.78576    199.64892    835.88407    31035.343   -1268.8781    386.28174    -882.5964   -1494.4102    799.25848   -1268.8781            0            0            0            0            0   -573.72641    -27.08728 
  600000    314.44431   -145.99829    819.63233    31650.714   -1236.5817    373.98221   -862.59952   -1469.9905     807.0653   -1236.5817            0            0            0            0            0   -573.65652   -26.560634 
  605000    317.03179   -672.47627    813.94673    31871.802   -1247.0344    377.05961    -869.9748   -1475.9432    802.51293   -1247.0344            0            0            0            0            0   -573.60417   -26.376389 
  610000    326.27191    144.91442    842.32092    30798.177   -1306.4744    388.04929   -918.42507   -1523.1256    790.51199   -1306.4744            0            0            0            0            0   -573.86076    -27.29587 
  615000    317.79177    91.140515    825.16428    31438.526   -1251.3813    377.96348   -873.41784   -1481.0155     803.2687   -1251.3813            0            0            0            0            0   -573.63451     -26.7399 
  620000    333.68438    264.66304    829.13276    31288.052   -1238.9318    396.86525   -842.06652   -1474.4823    809.20279   -1238.9318            0            0            0            0            0   -573.65224   -26.868501 
  625000    333.36544   -382.77013    819.65372    31649.888   -1237.0805    396.48593   -840.59459   -1468.8852    805.53715   -1237.0805            0            0            0            0            0   -573.73249   -26.561327 
  630000    309.01693    449.88868    854.36851    30363.887   -1302.8986    367.52719   -935.37137   -1529.3497    800.20053   -1302.8986            0            0            0            0            0    -573.7494   -27.686279 
  635000    341.23677    169.28315    833.03658    31141.428   -1274.9565    405.84763   -869.10891   -1497.8627    796.37877   -1274.9565            0            0            0            0            0   -573.47263   -26.995006 
  640000    326.65648    76.471712    824.56486     31461.38   -1234.9699    388.50666   -846.46322   -1463.3829    801.97702   -1234.9699            0            0            0            0            0   -573.56403   -26.720475 
  645000    329.05589   -19.058647    827.47142     31350.87   -1253.7016    391.36038   -862.34117   -1484.3132    804.31901   -1253.7016            0            0            0            0            0   -573.70736   -26.814664 
  650000     323.1273   -212.36859    815.41979    31814.225   -1227.4037    384.30926   -843.09447   -1462.5084    808.66602   -1227.4037            0            0            0            0            0   -573.56131   -26.424124 
  655000    303.83948   -86.061642    817.47011    31734.431   -1235.3683    361.36943   -873.99888   -1469.8047    808.03655   -1235.3683            0            0            0            0            0   -573.60017   -26.490566 
  660000    320.90929   -172.34282    798.90813    32471.754   -1191.3179    381.67129    -809.6466   -1422.4191    804.69906   -1191.3179            0            0            0            0            0    -573.5979   -25.889055 
  665000    311.31091   -190.76152    821.79912    31567.263   -1236.8377    370.25552   -866.58222   -1469.5627    806.40123   -1236.8377            0            0            0            0            0   -573.67627    -26.63085 
  670000    352.84023    11.000643    818.33116     31701.04   -1233.7607    419.64813   -814.11259    -1459.302    799.28029   -1233.7607            0            0            0            0            0     -573.739   -26.518469 
  675000    328.09723    197.78651    821.60659     31574.66   -1230.9609    390.22022   -840.74067   -1463.8817    806.76909   -1230.9609            0            0            0            0            0   -573.84833   -26.624611 
  680000    318.71241    155.61321     835.0988    31064.526   -1263.9864    379.05844   -884.92794   -1492.7779    802.31309   -1263.9864            0            0            0            0            0   -573.52152   -27.061833 
  685000    328.16631    395.91016    806.15841    32179.716    -1186.013    390.30237   -795.71066   -1411.7252    799.54527    -1186.013            0            0            0            0            0   -573.83311   -26.124004 
  690000    322.85823   -378.37283    820.33302    31623.679   -1256.1613    383.98925   -872.17201   -1487.7163    805.31101   -1256.1613            0            0            0            0            0   -573.75599    -26.58334 
  695000    347.09747      95.8209    814.90352     31834.38   -1220.0381    412.81802   -807.22008   -1451.0913    804.68529   -1220.0381            0            0            0            0            0   -573.63209   -26.407394 
  700000    313.32142   -156.21014    816.23537    31782.436   -1221.7261    372.64671   -849.07938   -1455.9864    808.01156   -1221.7261            0            0            0            0            0    -573.7512   -26.450554 
  705000    342.47307    167.04743     820.4036    31620.959    -1221.521    407.31802   -814.20297   -1454.2859     806.6894    -1221.521            0            0            0            0            0   -573.92448   -26.585627 
  710000    316.25452   -190.94296     817.8457    31719.857   -1235.1889    376.13516   -859.05378   -1466.5488    805.08657   -1235.1889            0            0            0            0            0   -573.72672   -26.502737 
  715000    320.93479   -270.84202     817.7881    31722.091   -1218.7174    381.70161   -837.01582   -1458.6642    813.42041   -1218.7174            0            0            0            0            0   -573.47368   -26.500871 
  720000    360.84875   -347.96618    830.47639    31237.431   -1267.1081    429.17301   -837.93504   -1496.0531     802.5117   -1267.1081            0            0            0            0            0   -573.56661   -26.912042 
  725000    324.58159    306.30753    846.55574    30644.112    -1286.201    386.03891   -900.16211   -1518.6583    806.23952    -1286.201            0            0            0            0            0   -573.78229   -27.433102 
  730000    348.50157   -336.69027    820.52951    31616.107   -1251.2874    414.48798   -836.79944   -1475.6005    798.10233   -1251.2874            0            0            0            0            0   -573.78926   -26.589708 
  735000    330.42378    469.83654     827.7317    31341.011   -1235.5252    392.98727   -842.53791   -1466.4172    804.55627   -1235.5252            0            0            0            0            0   -573.66426   -26.823099 
  740000    324.80477    97.044305     815.7365    31801.873   -1214.3755    386.30435   -828.07113   -1444.0817    803.20912   -1214.3755            0            0            0            0            0   -573.50287   -26.434387 
  745000    287.99308    263.47699    808.94672    32068.798   -1186.2367    342.52261   -843.71407   -1423.6743    810.84504   -1186.2367            0            0            0            0            0   -573.40742   -26.214361 
  750000    346.29651   -97.581075    806.92481    32149.152    -1201.682    411.86541   -789.81662   -1432.4155    804.41409    -1201.682            0            0            0            0            0   -573.68059    -26.14884 
  755000    311.98261   -357.49343    835.29405    31057.265   -1286.0224     371.0544   -914.96802   -1511.2454    798.91123   -1286.0224            0            0            0            0            0   -573.68822    -27.06816 
  760000    345.80346   -313.43334    846.39828    30649.812   -1311.0369    411.27899    -899.7579    -1542.226    804.85019   -1311.0369            0            0            0            0            0   -573.66113   -27.427999 
  765000    354.09226    -136.2545    827.78764    31338.893   -1262.7135    421.13722   -841.57624   -1490.5519    801.55794   -1262.7135            0            0            0            0            0   -573.71949   -26.824911 
  770000    329.62465    88.768353    821.94922    31561.498   -1244.3931    392.03683   -852.35622   -1472.8108    801.93551   -1244.3931            0            0            0            0            0   -573.51773   -26.635714 
  775000    330.15331    220.96682    837.79335    30964.615   -1272.2111     392.6656   -879.54552   -1504.4553    805.95923   -1272.2111            0            0            0            0            0   -573.71508   -27.149152 
  780000     348.9951   -47.492959    829.17436    31286.482   -1262.1936    415.07495   -847.11865   -1484.3047    795.91379   -1262.1936            0            0            0            0            0    -573.8027   -26.869849 
  785000    300.04146   -142.69319    825.29605    31433.506    -1255.065    356.85227    -898.2127   -1477.1275    795.79042    -1255.065            0            0            0            0            0   -573.72793    -26.74417 
  790000    348.88138   -209.57218    822.32863    31546.936   -1255.0083     414.9397   -840.06864   -1483.0327    801.83054   -1255.0083            0            0            0            0            0   -573.80617   -26.648009 
  795000    344.24594    196.15114    816.62681    31767.202     -1215.57    409.42657   -806.14342   -1447.1545    805.02133     -1215.57            0            0            0            0            0   -573.43684   -26.463238 
  800000    320.40895    124.96065    831.78191    31188.402   -1269.3073     381.0762   -888.23106   -1493.4782    797.59204   -1269.3073            0            0            0            0            0   -573.42112   -26.954348 
  805000    322.87294    274.90038      816.215    31783.229    -1205.985    384.00674   -821.97824   -1442.0876    809.69546    -1205.985            0            0            0            0            0   -573.59286   -26.449894 
  810000    347.39946    476.41238    831.49275    31199.248   -1250.3519    413.17719   -837.17468   -1474.6087    797.85814   -1250.3519            0            0            0            0            0   -573.60135   -26.944977 
  815000    324.32264    24.220532     816.4932      31772.4   -1237.1588    385.73093   -851.42788   -1462.6932    799.23549   -1237.1588            0            0            0            0            0   -573.70115   -26.458909 
  820000    325.74906   -81.336643    835.78251    31039.114   -1280.9733    387.42743   -893.54592   -1508.7621    801.26152   -1280.9733            0            0            0            0            0   -573.47274   -27.083989 
  825000    316.62035   -455.13699    812.97251    31909.995   -1220.9754    376.57026   -844.40519   -1451.1457    803.88594   -1220.9754            0            0            0            0            0   -573.71564   -26.344819 
  830000     322.8783    360.38798    833.13316    31137.818   -1237.6168    384.01311   -853.60365    -1472.665    808.71666   -1237.6168            0            0            0            0            0   -573.66846   -26.998136 
  835000    344.00851   -434.97333    808.80852    32074.277   -1223.4508    409.14419   -814.30657     -1450.94    801.16053   -1223.4508            0            0            0            0            0   -573.67132   -26.209882 
  840000    319.49763   -115.21145    821.38448    31583.198   -1242.9727    379.99234   -862.98034   -1466.6583    797.40549   -1242.9727            0            0            0            0            0   -573.71982   -26.617413 
  845000    343.36617   -466.82989    809.52709    32045.807   -1220.4103    408.38022   -812.03011   -1447.6318    801.08219   -1220.4103            0            0            0            0            0   -573.86069   -26.233168 
  850000    339.50038   -453.76193    829.20115    31285.471   -1257.0042    403.78247   -853.22173   -1493.4458    810.28387   -1257.0042            0            0            0            0            0   -573.84222   -26.870717 
  855000    327.20871   -698.90779    800.24567    32417.481   -1208.8919    389.16346   -819.72848   -1439.6637    804.28712   -1208.8919            0            0            0            0            0   -573.51536   -25.932398 
  860000    320.94738    136.77254    829.94252    31257.524   -1241.0231    381.71658   -859.30654   -1474.0841    806.79626   -1241.0231            0            0            0            0            0    -573.7353   -26.894741 
  865000    328.14095     -262.696    819.30316     31663.43   -1240.9733    390.27221   -850.70105   -1476.3292    809.19522   -1240.9733            0            0            0            0            0   -573.83924   -26.549967 
  870000    316.79885   -22.974701    825.62504    31420.981    -1236.213    376.78256   -859.43041   -1469.9247    807.52759    -1236.213            0            0            0            0            0   -573.81585   -26.754831 
  875000    336.93649    266.19635    818.91688    31678.366   -1212.2389    400.73312    -811.5058      -1449.9    811.45778   -1212.2389            0            0            0            0            0   -573.79672   -26.537449 
  880000    351.09936    39.398839    848.55423    30571.939   -1309.7992    417.57764   -892.22157   -1543.0223     806.8083   -1309.7992            0            0            0            0            0   -573.58518   -27.497864 
  885000     323.1329    9.8862012    825.57921    31422.725   -1242.1752    384.31592   -857.85924   -1478.0934     809.6636   -1242.1752            0            0            0            0            0   -573.74535   -26.753346 
  890000    336.73996    232.09966    807.95091    32108.323    -1206.809    400.49938   -806.30959   -1430.9512    797.72007    -1206.809            0            0            0            0            0   -573.57789   -26.182091 
  895000     327.2446    181.37046    821.97693    31560.434   -1228.1163    389.20615   -838.91013   -1457.5364    803.15166   -1228.1163            0            0            0            0            0   -573.73157   -26.636612 
  900000    320.24538    124.48517    827.66441    31343.559   -1243.8887    380.88167     -863.007   -1475.4687     805.1401   -1243.8887            0            0            0            0            0   -573.56009   -26.820918 
  905000    330.31037    203.36818    831.67335    31192.473   -1256.7644    392.85239   -863.91206   -1484.7692    801.71432   -1256.7644            0            0            0            0            0   -573.70957    -26.95083 
  910000    360.06157    22.678614    820.48262    31617.914   -1229.4244    428.23678   -801.18761   -1462.1264    806.28439   -1229.4244            0            0            0            0            0   -573.58239   -26.588188 
  915000    371.59294    109.38392    819.10106    31671.243   -1226.8106    441.95154   -784.85908   -1455.9709    802.97942   -1226.8106            0            0            0            0            0   -573.81918   -26.543418 
  920000    321.18001    20.473917    829.58077    31271.155   -1260.0362    381.99327   -878.04297   -1484.1501     797.8568   -1260.0362            0            0            0            0            0   -573.74295   -26.883019 
  925000    344.07032     32.93894    832.09264    31176.755   -1254.6143    409.21769   -845.39661    -1490.272    809.29575   -1254.6143            0            0            0            0            0   -573.63801   -26.964417 
  930000    325.22207   -2.6401126     826.7731     31377.35   -1246.6919    386.80066   -859.89124   -1476.5478    803.44823   -1246.6919            0            0            0            0            0   -573.59235   -26.792034 
  935000    343.96215    -107.0298    816.49069    31772.498   -1217.6639    409.08905   -808.57487   -1454.6787    810.59294   -1217.6639            0            0            0            0            0   -573.57818   -26.458827 
  940000    313.23713    179.88787    812.94563     31911.05   -1189.6722    372.54645   -817.12573   -1428.0128    811.86354   -1189.6722            0            0            0            0            0   -573.52292   -26.343948 
  945000    325.92456   -79.468358    816.15511    31785.562   -1212.7384    387.63616   -825.10225   -1451.2435    811.93201   -1212.7384            0            0            0            0            0    -573.4269   -26.447953 
  950000    353.20487      119.685    845.00457    30700.365   -1291.8428    420.08181   -871.76102   -1522.5348     804.4266   -1291.8428            0            0            0            0            0   -573.73462   -27.382835 
  955000     328.4695    61.060001    825.50662    31425.488   -1243.7192    390.66297   -853.05626   -1473.8783    803.84874   -1243.7192            0            0            0            0            0   -573.68969   -26.750994 
  960000    335.13032    147.40273     837.0542    30991.958   -1277.9413    398.58497   -879.35629   -1507.9106    803.54663   -1277.9413            0            0            0            0            0   -573.57731   -27.125199 
  965000    330.04843   -18.636999    825.76967    31415.478   -1247.6683    392.54086   -855.12741   -1477.0526    802.96381   -1247.6683            0            0            0            0            0   -573.57948   -26.759518 
  970000    323.63009    179.62752    848.45233    30575.611   -1295.4858    384.90725   -910.57853   -1524.2375    802.38083   -1295.4858            0            0            0            0            0   -573.62909   -27.494562 
  975000    331.53087    436.85519    830.09783    31251.676   -1235.8648    394.30398   -841.56082   -1467.1093    804.87845   -1235.8648            0            0            0            0            0   -573.63393   -26.899774 
  980000    352.67197   -278.53717    820.89626    31601.982   -1248.2269    419.44801   -828.77885   -1475.4636    801.03139   -1248.2269            0            0            0            0            0   -573.79463   -26.601592 
  985000    322.35376     497.6498    819.52809     31654.74    -1214.562    383.38926   -831.17272   -1447.9977    807.03734    -1214.562            0            0            0            0            0   -573.60165   -26.557256 
  990000    318.73296    79.546644    814.66704    31843.621   -1221.9047    379.08288   -842.82186   -1452.0107    803.87542   -1221.9047            0            0            0            0            0    -573.7695   -26.399731 
  995000    330.40712   -306.03366    802.95418    32308.131    -1214.476    392.96746   -821.50852   -1440.5606    799.90281    -1214.476            0            0            0            0            0    -573.8182   -26.020169 
 1000000    351.05504   -175.10515    810.44366    32009.565   -1217.2193    417.52493   -799.69434   -1448.8718    805.36787   -1217.2193            0            0            0            0            0   -573.71529    -26.26287 
 1005000    330.85656     451.8684    834.58161    31083.777   -1249.7452      393.502   -856.24315   -1483.9586    807.97227   -1249.7452            0            0            0            0            0   -573.75879   -27.045073 
 1010000    329.45256   -115.79838    820.28195    31625.649   -1247.2222    391.83216      -855.39   -1473.0705    799.46137   -1247.2222            0            0            0            0            0   -573.61307   -26.581685 
 1015000    332.80962   -87.639764    809.13472    32061.347    -1189.817    395.82486   -793.99216   -1424.6335    808.64587    -1189.817            0            0            0            0            0   -573.82937   -26.220453 
 1020000    306.14066   -92.969533     824.9931    31445.049   -1246.1511    364.10631   -882.04481   -1476.1596    803.75401   -1246.1511            0            0            0            0            0   -573.74555   -26.734353 
 1025000    327.85865   -80.627887    831.23647    31208.867   -1259.7702    389.93646   -869.83371   -1492.5173    806.87426   -1259.7702            0            0            0            0            0   -574.12715   -26.936672 
 1030000    336.67488   -49.361991    829.64864    31268.597   -1259.8379    400.42199   -859.41595   -1490.3479    804.33569   -1259.8379            0            0            0            0            0   -573.82575   -26.885218 
 1035000     322.8772   -731.73337    809.49962    32046.894   -1220.3551     384.0118   -836.34333   -1458.7201    812.29272   -1220.3551            0            0            0            0            0    -573.9278   -26.232278 
 1040000    321.07566   -3.6301893    841.15424    30840.894   -1279.8576    381.86916   -897.98845   -1512.7944    806.73089   -1279.8576            0            0            0            0            0   -573.79409   -27.258063 
 1045000    337.26987    358.49315    816.10816     31787.39   -1209.0699    401.12963   -807.94026   -1444.5196    809.13171   -1209.0699            0            0            0            0            0   -573.68195   -26.446431 
 1050000    307.63702   -878.57923    828.56512    31309.487    -1282.986    365.88601       -917.1   -1515.7138    806.43615    -1282.986            0            0            0            0            0   -573.70836   -26.850106 
 1055000    329.72689    227.32813    827.98068    31331.587   -1258.3443    392.15844   -866.18581   -1486.9767    802.56347   -1258.3443            0            0            0            0            0   -573.93103   -26.831167 
 1060000    336.34133    437.91684    838.32767    30944.879   -1268.7639    400.02528   -868.73866   -1502.5805    807.68026   -1268.7639            0            0            0            0            0   -573.86369   -27.166467 
 1065000    330.59794    86.106762     848.5659    30571.519   -1303.7794    393.19441   -910.58503   -1533.3704    803.18074   -1303.7794            0            0            0            0            0   -573.58979   -27.498242 
 1070000    335.08233   -204.38203    815.05736    31828.372   -1219.1773    398.52789   -820.64941   -1459.5389    813.98432   -1219.1773            0            0            0            0            0   -573.62275    -26.41238 
 1075000    329.11329    287.57968    826.59547    31384.093   -1233.9876    391.42865   -842.55896   -1469.1691    809.09843   -1233.9876            0            0            0            0            0   -573.91696   -26.786278 
 1080000     324.4858   -59.683794    822.64484     31534.81   -1239.8458    385.92498   -853.92084   -1464.8935    798.50135   -1239.8458            0            0            0            0            0   -573.45369   -26.658256 
 1085000    321.52814   -123.80708    842.85061    30778.822   -1296.7575    382.40731   -914.35023   -1527.6532    804.73803   -1296.7575            0            0            0            0            0   -573.84237   -27.313035 
 1090000    318.89895    44.751162    819.43639    31658.282   -1223.8662    379.28031   -844.58587   -1452.5188    802.38683   -1223.8662            0            0            0            0            0   -573.73424   -26.554284 
 1095000    323.03109   -234.79762    816.33874    31778.412   -1227.3481    384.19483   -843.15325   -1454.1115    800.46997   -1227.3481            0            0            0            0            0   -573.70657   -26.453903 
 1100000    314.78256   -334.45506    809.92904    32029.903   -1216.0479     374.3845   -841.66336   -1441.3863    798.94702   -1216.0479            0            0            0            0            0   -573.60858   -26.246193 
 1105000    315.87065    101.00317    816.09922    31787.739   -1221.7618    375.67861   -846.08318   -1451.0612    802.85293   -1221.7618            0            0            0            0            0   -573.55354   -26.446141 
 1110000    330.41427   -124.77149    832.61323    31157.262    -1265.083    392.97597   -872.10704     -1492.17    800.55447    -1265.083            0            0            0            0            0   -573.46752   -26.981287 
 1115000    332.20002    -160.1101    830.39393    31240.533   -1252.2052    395.09984   -857.10537   -1489.1108    810.59659   -1252.2052            0            0            0            0            0   -573.69103   -26.909369 
 1120000    349.15557    39.707626    812.53629    31927.126   -1212.8377    415.26581    -797.5719   -1449.8179      810.539   -1212.8377            0            0            0            0            0   -573.55882   -26.330683 
 1125000    318.99445   -64.156201    818.38815    31698.832   -1223.2199    379.39388   -843.82598   -1459.0927    809.42063   -1223.2199            0            0            0            0            0   -573.54781   -26.520316 
 1130000    316.76866   -72.700994    816.31488    31779.341   -1228.3779    376.74665   -851.63128   -1457.7845    803.12827   -1228.3779            0            0            0            0            0   -573.72167    -26.45313 
 1135000    349.32301   -43.989864    834.15539     31099.66   -1283.0468    415.46495   -867.58188    -1508.115    798.38382   -1283.0468            0            0            0            0            0   -573.31567   -27.031261 
 1140000    334.68565   -68.382699    825.83198    31413.107   -1246.4191     398.0561   -848.36295   -1471.4521    798.63703   -1246.4191            0            0            0            0            0   -573.60397   -26.761537 
 1145000    314.44212    6.3624955    804.34534    32252.252   -1192.4526     373.9796   -818.47299   -1432.6938      813.895   -1192.4526            0            0            0            0            0   -573.65376   -26.065251 
 1150000     338.4007   -242.96428    821.52772    31577.691   -1241.2933    402.47458    -838.8187   -1474.8641    807.21937   -1241.2933            0            0            0            0            0   -573.64857   -26.622055 
 1155000    325.80014   -131.25161    816.03346      31790.3   -1235.7874    387.48819   -848.29926   -1467.5576    805.55315   -1235.7874            0            0            0            0            0   -573.78304    -26.44401 
 1160000    338.49757    619.92458    819.57843    31652.796   -1207.2014    402.58979   -804.61157   -1435.9585    802.32577   -1207.2014            0            0            0            0            0   -573.56864   -26.558887 
 1165000    332.30071   -8.5201595    823.18042    31514.293   -1240.5095    395.21959   -845.28994    -1468.739    802.01512   -1240.5095            0            0            0            0            0   -573.78568   -26.675612 
 1170000    347.05831      43.4934    823.23826    31512.079   -1237.7272    412.77144   -824.95575   -1474.5618    810.64176   -1237.7272            0            0            0            0            0   -573.80718   -26.677486 
 1175000    339.27541   -235.90592    834.78013    31076.385   -1278.9187     403.5149   -875.40378   -1507.0808    801.99327   -1278.9187            0            0            0            0            0   -573.83115   -27.051507 
 1180000    321.81288    46.508961    820.73805    31608.074   -1244.5199    382.74597   -861.77393   -1473.5933    802.50966   -1244.5199            0            0            0            0            0   -573.43625   -26.596465 
 1185000    331.49788   -154.39667     825.1818    31437.859   -1249.0639    394.26475   -854.79915   -1483.8791    808.42524   -1249.0639            0            0            0            0            0   -573.61003   -26.740467 
 1190000    348.48564   -503.71739    813.92254    31872.749   -1246.0475    414.46903    -831.5785   -1469.1543    796.71676   -1246.0475            0            0            0            0            0   -573.60998   -26.375605 
 1195000    311.46663      106.615     830.7712    31226.346   -1255.6049    370.44072   -885.16422   -1486.3511    804.61647   -1255.6049            0            0            0            0            0   -573.87034   -26.921595 
 1200000    329.26096    52.932539    829.65671    31268.293   -1258.4817    391.60429   -866.87742   -1487.3582    802.56486   -1258.4817            0            0            0            0            0   -573.68837   -26.885479 
 1205000    345.73672   -187.61177    826.41037    31391.122   -1261.4866    411.19962   -850.28697   -1491.5605    803.55099   -1261.4866            0            0            0            0            0   -573.47704    -26.78028 
 1210000    325.75019    344.35021    844.52134    30717.931   -1273.8821    387.42878   -886.45331   -1510.6001     810.3619   -1273.8821            0            0            0            0            0   -573.64393   -27.367176 
 1215000    366.86495   -512.48928    818.59937    31690.653   -1257.2847    436.32833   -820.95641   -1485.1672    801.42772   -1257.2847            0            0            0            0            0   -573.54529    -26.52716 
 1220000    331.51022    253.65296    840.35963    30870.056   -1266.3249    394.27943   -872.04547   -1506.5345    814.10339   -1266.3249            0            0            0            0            0   -573.89378   -27.232314 
 1225000    319.50695    127.77479    828.21509    31322.719   -1246.4714    380.00342   -866.46796   -1472.8827    799.75914   -1246.4714            0            0            0            0            0   -573.34781   -26.838763 
 1230000    305.14173   -125.77599    830.19154    31248.149   -1241.6079    362.91824   -878.68961   -1480.7323    812.74008   -1241.6079            0            0            0            0            0   -573.61559   -26.902811 
 1235000    330.79798   -35.399746    835.39485    31053.518   -1263.7526    393.43233   -870.32031   -1499.3848    809.44294   -1263.7526            0            0            0            0            0   -573.81083   -27.071427 
 1240000    306.15483    174.75581    808.10805    32102.079   -1176.8394    364.12317   -812.71624   -1418.7019    815.43603   -1176.8394            0            0            0            0            0   -573.57359   -26.187183 
 1245000    298.99914   -300.95143      820.396    31621.252   -1248.2141     355.6126   -892.60152    -1475.292    800.53214   -1248.2141            0            0            0            0            0   -573.45423   -26.585381 
 1250000    358.48922    29.044654    801.64598    32360.854   -1185.6429    426.36672   -759.27613   -1416.1988    804.23624   -1185.6429            0            0            0            0            0   -573.68026   -25.977776 
 1255000    350.46826    451.07902     828.0879     31327.53   -1239.1708    416.82704   -822.34371   -1471.5751    806.07618   -1239.1708            0            0            0            0            0   -573.67179   -26.834641 
 1260000    338.96713   -335.83405    808.81669    32073.953   -1216.2322    403.14825   -813.08394   -1454.2534     811.4403   -1216.2322            0            0            0            0            0   -573.41907   -26.210147 
 1265000    332.47836   -560.71977    836.82683    31000.379   -1288.9603    395.43088   -893.52939   -1516.5997    801.48063   -1288.9603            0            0            0            0            0   -573.84122   -27.117831 
 1270000    315.20787    453.41036     822.2246    31550.927   -1207.4713    374.89034   -832.58098   -1439.9806    806.14465   -1207.4713            0            0            0            0            0   -573.63541   -26.644638 
 1275000    340.64469   -209.74566    827.92734    31333.605    -1259.995    405.14345   -854.85153   -1500.6878    814.07066    -1259.995            0            0            0            0            0   -573.37787   -26.829438 
 1280000    325.25774    6.6250631    817.58981    31729.785   -1220.3516    386.84308   -833.50853     -1453.88     807.3294   -1220.3516            0            0            0            0            0   -573.80098   -26.494445 
 1285000    336.31842    127.40288    820.74221    31607.913   -1222.4894    399.99803   -822.49138   -1454.2113    804.95181   -1222.4894            0            0            0            0            0   -573.22989     -26.5966 
 1290000    326.82258    83.169179    816.59851    31768.303   -1220.5591    388.70422   -831.85487   -1451.8298    804.79381   -1220.5591            0            0            0            0            0   -573.52314   -26.462321 
 1295000    322.59894   -240.20761    825.50471    31425.561   -1245.8591    383.68086   -862.17821    -1482.842    810.68726   -1245.8591            0            0            0            0            0   -573.70433   -26.750932 
 1300000    346.12513    258.33773    827.81655    31337.799   -1240.6788    411.66158   -829.01719   -1480.2156    813.07552   -1240.6788            0            0            0            0            0   -573.53867   -26.825848 
 1305000     312.5852    157.48319    839.50326    30901.546   -1271.3165    371.77108   -899.54539   -1500.3915    803.03278   -1271.3165            0            0            0            0            0   -573.95777   -27.204562 
 1310000    311.57668   -124.64099    824.82939     31451.29   -1241.7091    370.57161   -871.13744   -1473.6603    805.77144   -1241.7091            0            0            0            0            0   -573.82023   -26.729047 
 1315000    319.72057   -9.4997615     819.0184    31674.439   -1229.0682    380.25749   -848.81075   -1458.3704    802.78611   -1229.0682            0            0            0            0            0   -573.48392   -26.540739 
 1320000    338.47941    500.17998    837.90334    30960.551   -1263.8287    402.56818   -861.26051   -1490.7715    800.57144   -1263.8287            0            0            0            0            0   -573.62866   -27.152716 
 1325000    342.24448    593.87923    822.64989    31534.616   -1220.8748    407.04615    -813.8286   -1448.7385    801.26522   -1220.8748            0            0            0            0            0   -573.40153    -26.65842 
 1330000    324.24782   -319.44394    821.79431    31567.447   -1247.7464    385.64194   -862.10448   -1479.9559    805.86792   -1247.7464            0            0            0            0            0   -573.65849   -26.630694 
 1335000    344.54778   -233.66999    822.71129    31532.263   -1250.9443    409.78557   -841.15871   -1481.9995    805.00213   -1250.9443            0            0            0            0            0   -573.94692   -26.660409 
 1340000    347.41368    186.71745    836.22312    31022.759   -1265.0027     413.1941   -851.80855   -1495.9265    804.53458   -1265.0027            0            0            0            0            0   -573.61071   -27.098268 
 1345000    349.68323    215.33533    833.11093    31138.649   -1262.2433    415.89338   -846.34995   -1499.1832    810.39205   -1262.2433            0            0            0            0            0   -573.45213   -26.997415 
 1350000    329.39295   -313.23125    808.34461    32092.685   -1214.9845    391.76127   -823.22327   -1448.7143    807.48089   -1214.9845            0            0            0            0            0   -573.75113   -26.194849 
 1355000     330.4706   -56.752366    819.82818    31643.153   -1231.4814    393.04296   -838.43845   -1467.3813     809.1862   -1231.4814            0            0            0            0            0   -573.28629   -26.566981 
 1360000    354.97259     103.8788    811.87032    31953.316   -1194.9355    422.18424    -772.7513   -1435.0925    813.68629   -1194.9355            0            0            0            0            0   -573.52938   -26.309102 
 1365000    332.26382   -351.78123    828.93082    31295.674   -1258.3945    395.17572   -863.21883   -1494.3679    809.63765   -1258.3945            0            0            0            0            0   -573.66425   -26.861957 
 1370000     336.3452   -303.78297    827.37934    31354.359   -1265.6244    400.02988   -865.59449   -1491.9698    800.15533   -1265.6244            0            0            0            0            0   -573.80989    -26.81168 
 1375000    330.89386    299.96011    837.77613    30965.251   -1272.4635    393.54636   -878.91717   -1502.7123    803.99745   -1272.4635            0            0            0            0            0   -573.74867   -27.148594 
 1380000    310.80224    47.651761    813.54038    31887.721   -1229.5052    369.65053   -859.85465   -1454.3968    798.41028   -1229.5052            0            0            0            0            0   -573.51867   -26.363221 
 1385000    317.72349    108.65869    832.87287    31147.549   -1258.1483    377.88228   -880.26602   -1492.2249    807.48748   -1258.1483            0            0            0            0            0   -573.41091   -26.989701 
 1390000    340.10535    454.11212    822.24651    31550.087   -1235.6776    404.50198   -831.17561    -1458.119    795.93015   -1235.6776            0            0            0            0            0   -573.48878   -26.645348 
 1395000    340.32064    165.72211    811.91484    31951.564   -1205.1077    404.75804   -800.34969   -1436.0965    804.59544   -1205.1077            0            0            0            0            0   -573.60664   -26.310544 
 1400000    321.74869    23.514582    826.30468    31395.137   -1246.6227    382.66962   -863.95304   -1479.4879    806.31686   -1246.6227            0            0            0            0            0   -573.45162   -26.776855 
 1405000    324.60094   -385.74589    817.78984    31722.023   -1243.7287    386.06193   -857.66679    -1472.145    802.18764   -1243.7287            0            0            0            0            0   -573.77132   -26.500927 
 1410000    338.94855    183.74226    805.75767    32195.721   -1189.5739    403.12616   -786.44771   -1426.8319     811.0083   -1189.5739            0            0            0            0            0   -573.75029   -26.111018 
 1415000    347.47544   -67.700609    819.38514    31660.262   -1220.4368    413.26756   -807.16926   -1456.5676    809.95267   -1220.4368            0            0            0            0            0   -573.82188   -26.552624 
 1420000    314.03983   -128.31215    826.07171    31403.991   -1239.3351    373.50114   -865.83391   -1467.8066    802.26091   -1239.3351            0            0            0            0            0   -573.78941   -26.769306 
 1425000    342.45511   -129.29797     813.2303     31899.88   -1228.4186    407.29666    -821.1219   -1453.2991    798.62734   -1228.4186            0            0            0            0            0   -573.74678   -26.353172 
 1430000    346.49496   -343.56761    819.68064    31648.849   -1239.7515    412.10143   -827.65002    -1477.696    811.50591   -1239.7515            0            0            0            0            0    -573.5614   -26.562199 
 1435000     350.6465   -428.55508    826.06851    31404.113   -1267.9034    417.03904   -850.86437   -1495.0027     801.1039   -1267.9034            0            0            0            0            0   -574.00464   -26.769202 
 1440000    330.04674   -64.656224    813.10969    31904.611   -1212.9021    392.53884   -820.36324   -1447.7924    808.37961   -1212.9021            0            0            0            0            0   -573.48933   -26.349264 
 1445000    351.23505    292.18096    820.98166    31598.694   -1219.7835    417.73903   -802.04448   -1451.1564    805.13394   -1219.7835            0            0            0            0            0   -573.76104    -26.60436 
 1450000     326.5147    440.45297    828.98172    31293.752   -1244.5634    388.33804   -856.22536   -1466.9899    796.13798   -1244.5634            0            0            0            0            0   -573.71144   -26.863606 
 1455000    344.80532    303.72671    833.24388     31133.68    -1243.912    410.09187   -833.82016   -1477.4955    807.22378    -1243.912            0            0            0            0            0   -573.64028   -27.001724 
 1460000     340.6569    177.86455    846.09053    30660.961   -1290.7314    405.15797   -885.57344   -1520.0657    803.10403   -1290.7314            0            0            0            0            0   -573.76975   -27.418026 
 1465000    318.63811    -20.11819    810.39051    32011.664   -1207.8168    378.97008    -828.8467   -1436.9831    802.91712   -1207.8168            0            0            0            0            0   -573.75076   -26.261148 
 1470000    333.03491    260.54973    836.97399    30994.928    -1264.654    396.09281   -868.56119   -1496.5069    805.47491    -1264.654            0            0            0            0            0   -573.62196     -27.1226 
 1475000    337.74119    229.20648    820.95843    31599.588   -1221.6571     401.6902   -819.96693   -1457.8153    809.56719   -1221.6571            0            0            0            0            0   -573.40904   -26.603607 
 1480000    302.92328   -397.84919    798.89758    32472.183   -1186.6568    360.27975   -826.37702   -1427.1798    814.27974   -1186.6568            0            0            0            0            0   -573.75669   -25.888713 
 1485000    323.08432     50.96032    806.72426    32157.145   -1194.6852    384.25814    -810.4271   -1431.0984    809.97725   -1194.6852            0            0            0            0            0   -573.56414   -26.142341 
 1490000     341.1226   -87.208937     827.8112    31338.001   -1253.5681    405.71184   -847.85625    -1489.774    809.78505   -1253.5681            0            0            0            0            0   -573.57916   -26.825675 
 1495000     327.9573    339.01945    830.46239    31237.957    -1246.555    390.05378   -856.50121    -1477.313    804.41799    -1246.555            0            0            0            0            0   -573.65996   -26.911588 
 1500000    337.70643   -326.47407     833.3056    31131.375   -1277.5492    401.64884   -875.90035   -1507.1426    803.21104   -1277.5492            0            0            0            0            0   -573.61767   -27.003724 
 1505000     356.5124   -185.26963    820.86875    31603.041   -1248.2995     424.0156   -824.28391   -1478.6271    804.03291   -1248.2995            0            0            0            0            0    -573.7053   -26.600701 
 1510000     318.8337   -186.24351    812.85676    31914.539   -1225.8734    379.20269   -846.67071   -1456.0048      803.727   -1225.8734            0            0            0            0            0    -573.5956   -26.341068 
 1515000     347.2721   -172.44031    797.81144    32516.391   -1186.1073    413.02571   -773.08156   -1421.1267    808.72058   -1186.1073            0            0            0            0            0    -573.7012   -25.853516 
 1520000    321.18607    26.426669    823.30019    31509.708   -1241.5369    382.00047   -859.53645   -1467.6364    799.95166   -1241.5369            0            0            0            0            0   -573.85214   -26.679493 
 1525000    316.94551    155.36204    838.09663     30953.41   -1262.0382    376.95699   -885.08119   -1489.2545    800.96719   -1262.0382            0            0            0            0            0   -573.75092    -27.15898 
 1530000    366.10562   -30.379899    842.22289    30801.762   -1295.3244    435.42523   -859.89921   -1523.8287    802.24047   -1295.3244            0            0            0            0            0   -573.73625   -27.292693 
 1535000    327.39842   -74.676018     831.4568    31200.597   -1264.9931    389.38909     -875.604   -1492.1337    800.47024   -1264.9931            0            0            0            0            0   -573.32961   -26.943812 
 1540000    305.58143    -847.9441    819.95799    31638.144   -1256.8569     363.4412   -893.41572   -1488.4658    805.28196   -1256.8569            0            0            0            0            0   -573.67305   -26.571187 
 1545000    326.61654    151.06752    828.81418    31300.078   -1252.1198    388.45916   -863.66061   -1484.4654    805.99894   -1252.1198            0            0            0            0            0   -573.65333   -26.858177 
 1550000    329.22208    107.78309    834.29414    31094.487   -1267.3892    391.55805   -875.83111   -1495.2396    801.52591   -1267.3892            0            0            0            0            0    -573.6755   -27.035758 
 1555000    345.74776   -702.30686    802.85949    32311.941   -1211.6707    411.21275   -800.45793   -1441.8774    803.74367   -1211.6707            0            0            0            0            0   -573.53693   -26.017101 
 1560000    366.33895   -340.55919    809.89637    32031.195   -1223.0233    435.70274   -787.32052   -1456.9236    807.53246   -1223.0233            0            0            0            0            0   -573.63212   -26.245135 
 1565000    320.99538   -96.780215    837.32762    30981.838   -1274.8936    381.77367   -893.11995   -1505.3261    803.95813   -1274.8936            0            0            0            0            0   -573.52565   -27.134059 
 1570000    327.32013    238.88979    827.34904    31355.507   -1236.7385    389.29598   -847.44256   -1464.6826    801.66382   -1236.7385            0            0            0            0            0   -573.71972   -26.810698 
 1575000     320.0723    244.06228    824.77616     31453.32   -1247.6666    380.67582   -866.99083   -1473.1708    799.11361   -1247.6666            0            0            0            0            0   -573.60948   -26.727323 
 1580000    339.27228    -210.6938    830.75151    31227.086   -1267.2721    403.51118   -863.76089   -1501.8445    808.22248   -1267.2721            0            0            0            0            0   -573.65002   -26.920957 
 1585000    330.10568    630.85994    836.92007    30996.925   -1251.7937    392.60895   -859.18479   -1486.9817    808.93795   -1251.7937            0            0            0            0            0   -573.75003   -27.120852 
 1590000    328.95918   -83.886905     826.2357    31397.758    -1241.899    391.24536   -850.65362   -1484.5574    816.17675    -1241.899            0            0            0            0            0   -573.51837    -26.77462 
 1595000    358.11542   -98.013539    841.46216    30829.608   -1283.5774    425.92214   -857.65525   -1518.0238    808.11799   -1283.5774            0            0            0            0            0   -573.67154   -27.268041 
[...]
 4600000    317.41744     278.0549    843.71449    30747.307   -1292.5105    377.51827   -914.99224   -1523.2265    804.68706   -1292.5105            0            0            0            0            0   -573.97112   -27.341029 
 4605000    328.07422    395.28963    827.21263    31360.678   -1242.4631    390.19284   -852.27029   -1471.1071    802.41022   -1242.4631            0            0            0            0            0   -573.76629   -26.806278 
 4610000    341.63647   -299.65499    817.60556    31729.174    -1235.595    406.32302   -829.27195   -1470.5407    808.53552    -1235.595            0            0            0            0            0   -573.58981   -26.494955 
 4615000    338.89501    -223.7092    821.83058    31566.054   -1256.0403    403.06248   -852.97778   -1486.7768    804.15064   -1256.0403            0            0            0            0            0   -573.41415   -26.631869 
 4620000    334.86927    30.012329    809.48609     32047.43    -1208.238     398.2745   -809.96354   -1437.5975    803.15365    -1208.238            0            0            0            0            0   -573.79417   -26.231839 
 4625000    312.46691    403.45217    833.05095    31140.891   -1261.6725    371.63039    -890.0421   -1482.0909    794.15355   -1261.6725            0            0            0            0            0    -573.7351   -26.995472 
 4630000    327.09038    533.22463    836.16414    31024.947   -1248.2167    389.02273   -859.19397   -1478.0063    803.42487   -1248.2167            0            0            0            0            0   -573.63528   -27.096356 
 4635000    333.69728     220.4403    822.29835    31548.098   -1234.2586    396.88059   -837.37802   -1459.4189    798.90918   -1234.2586            0            0            0            0            0   -573.74887   -26.647028 
 4640000    334.13986    471.25278     835.7359    31040.845    -1259.336    397.40698   -861.92907   -1484.2674    798.71931    -1259.336            0            0            0            0            0   -573.78798   -27.082479 
 4645000    331.55342    12.093768    827.85452    31336.362   -1252.9619    394.33081   -858.63113   -1478.8346    799.54933   -1252.9619            0            0            0            0            0   -573.67671   -26.827078 
 4650000    301.51838    255.91023    837.65326    30969.794   -1266.9081    358.60883   -908.29924   -1492.8732    799.64753   -1266.9081            0            0            0            0            0   -573.68244   -27.144612 
 4655000    323.99605    244.35866    832.81645    31149.659   -1251.2095     385.3425   -865.86695   -1485.3162    807.81567   -1251.2095            0            0            0            0            0   -573.70893   -26.987873 
 4660000    318.82396    653.15182    838.54357    30936.912   -1266.3232    379.19111   -887.13205    -1491.765    799.14796   -1266.3232            0            0            0            0            0   -573.70616   -27.173463 
 4665000    351.97836   -438.90402    823.07423    31518.359   -1263.5584    418.62308   -844.93535   -1488.0468    798.13091   -1263.5584            0            0            0            0            0   -573.64257    -26.67217 
 4670000    314.30954   -116.96112    819.82953    31643.101   -1242.2533    373.82191   -868.43143   -1466.7651    798.15349   -1242.2533            0            0            0            0            0   -573.64172   -26.567024 
 4675000    328.29939     184.1566    815.81898    31798.658    -1221.692    390.46065   -831.23132   -1448.8798    800.88729    -1221.692            0            0            0            0            0   -573.69948    -26.43706 
 4680000    334.66038    146.01017    841.14985    30841.055   -1276.1204    398.02605   -878.09432    -1506.958    804.49057   -1276.1204            0            0            0            0            0   -573.65297   -27.257921 
 4685000    319.65226    182.91421    835.54382    31047.981   -1266.9818    380.17625   -886.80559   -1500.9688    807.76523   -1266.9818            0            0            0            0            0   -573.77828   -27.076254 
 4690000    335.42826    232.83222    828.10401    31326.921   -1240.1622    398.93932   -841.22289   -1470.2723    803.80461   -1240.1622            0            0            0            0            0   -573.69453   -26.835163 
 4695000    320.44795     -165.237    827.95112    31332.706   -1251.7113    381.12259   -870.58874   -1487.7933     809.9032   -1251.7113            0            0            0            0            0   -573.82121   -26.830209 
 4700000    349.34187   -532.81189    797.70046    32520.915   -1202.4449    415.48738   -786.95749   -1430.0765    801.46879   -1202.4449            0            0            0            0            0   -573.83712    -25.84992 
 4705000    337.34149   -28.026842    837.38216     30979.82   -1282.5035    401.21481   -881.28868   -1507.0261    797.93819   -1282.5035            0            0            0            0            0   -573.41557   -27.135827 
 4710000    324.67096    319.54665    814.90661     31834.26   -1209.5567     386.1452   -823.41146   -1443.3122    807.44915   -1209.5567            0            0            0            0            0   -573.69363   -26.407494 
 4715000    338.68318    208.18363    814.45841    31851.778    -1215.312    402.81054   -812.50146   -1446.9431    805.35723    -1215.312            0            0            0            0            0   -573.72608    -26.39297 
 4720000    322.88489   -308.36052    826.25812    31396.906   -1248.9624    384.02096   -864.94145   -1483.1644    808.12367   -1248.9624            0            0            0            0            0   -573.92173   -26.775346 
 4725000    318.79011    92.105519    828.02075    31330.071   -1247.3532    379.15085   -868.20232   -1474.7596    801.26314   -1247.3532            0            0            0            0            0   -573.85671   -26.832465 
 4730000    352.42046   -196.79182    809.70337     32038.83   -1218.2453    419.14888   -799.09647   -1454.7995    809.83515   -1218.2453            0            0            0            0            0   -573.28099   -26.238881 
 4735000    336.08822    -141.2623    822.39723    31544.305   -1248.8441    399.72424   -849.11982   -1484.5139    809.14879   -1248.8441            0            0            0            0            0   -573.47896   -26.650232 
 4740000    336.46644   -168.72517    825.64629    31420.172   -1255.3577    400.17408   -855.18359   -1483.4712    801.60082   -1255.3577            0            0            0            0            0   -573.48732   -26.755519 
 4745000    304.00656    138.00731    820.41775    31620.413   -1223.3444    361.56814    -861.7763   -1460.7865    811.02737   -1223.3444            0            0            0            0            0   -573.58529   -26.586086 
 4750000    317.53365   -202.14385    837.92647    30959.696   -1290.0255    377.65649   -912.36896   -1516.6194    800.15118   -1290.0255            0            0            0            0            0   -573.55724   -27.153466 
 4755000    334.17424   -113.40388    820.66526    31610.877   -1239.9887    397.44787    -842.5408   -1471.1382    804.57658   -1239.9887            0            0            0            0            0   -573.42707   -26.594107 
 4760000    337.74026    373.71536    818.56028    31692.167   -1225.2249    401.68908   -823.53583   -1449.9373      798.516   -1225.2249            0            0            0            0            0   -573.80365   -26.525893 
 4765000    315.13692    450.68826    832.40972     31164.88   -1246.1859    374.80596   -871.37996   -1481.0222    808.40062   -1246.1859            0            0            0            0            0    -573.5643   -26.974692 
 4770000    341.55934    398.41401    822.54216    31538.746   -1228.6539    406.23128   -822.42265    -1465.262    810.10486   -1228.6539            0            0            0            0            0   -573.49674   -26.654929 
 4775000    329.43328    503.89853    839.48027    30902.392   -1265.8867    391.80924   -874.07744   -1489.4922     797.3168   -1265.8867            0            0            0            0            0   -573.71128   -27.203817 
 4780000    351.93563   -493.67048    810.94091    31989.937   -1233.3819    418.57225   -814.80962   -1467.2202    807.55433   -1233.3819            0            0            0            0            0   -573.71599   -26.278984 
 4785000    336.98801   -269.14045    831.69702    31191.585   -1265.0072     400.7944   -864.21277   -1494.9571    803.80954   -1265.0072            0            0            0            0            0   -573.85957   -26.951597 
 4790000    327.23311    564.53169    812.37955    31933.286   -1194.3109    389.19248   -805.11839   -1427.8357    807.28221   -1194.3109            0            0            0            0            0   -573.75738   -26.325604 
 4795000    334.64275   -441.42737    829.94331    31257.495   -1273.9576    398.00508   -875.95251   -1501.7988     801.3808   -1273.9576            0            0            0            0            0   -573.53957   -26.894767 
 4800000    335.09212   -177.22648    826.22457    31398.181   -1256.2354    398.53953   -857.69583   -1478.6521    796.28391   -1256.2354            0            0            0            0            0   -573.86716   -26.774259 
 4805000    358.61563   -281.22779    810.64744    32001.518   -1228.6674    426.51706   -802.15038   -1459.1921    803.99178   -1228.6674            0            0            0            0            0   -573.46711   -26.269474 
 4810000    340.70686     371.5513    825.63725    31420.516   -1251.0244    405.21739   -845.80703   -1470.3193    792.90713   -1251.0244            0            0            0            0            0   -573.61221   -26.755227 
 4815000    323.58404    83.859776    832.54411    31159.849   -1261.1989    384.85248   -876.34642   -1484.8828    797.19019   -1261.1989            0            0            0            0            0   -573.50632   -26.979047 
 4820000    338.60618    147.09397    838.85538    30925.412   -1265.9812    402.71896   -863.26222   -1494.4849    802.26678   -1265.9812            0            0            0            0            0   -573.76307   -27.183567 
 4825000    350.74766   -593.40757    831.93677    31182.597   -1286.3423    417.15935   -869.18295   -1516.3444    803.92959   -1286.3423            0            0            0            0            0   -573.92745   -26.959366 
 4830000    320.53905   -170.87987    820.02769    31635.454   -1240.2455    381.23094   -859.01456   -1471.9153    805.23261   -1240.2455            0            0            0            0            0   -573.56281   -26.573446 
 4835000    326.23171    155.80466     827.5305    31348.631     -1250.28    388.00146   -862.27857   -1480.4008    803.88644     -1250.28            0            0            0            0            0   -573.76565   -26.816578 
 4840000    333.71133   -402.82492    828.52085     31311.16   -1272.9452     396.8973   -876.04787   -1497.8899    798.56763   -1272.9452            0            0            0            0            0   -573.62287   -26.848671 
 4845000    329.35264    437.34971    841.87562    30814.467   -1272.0665    391.71333   -880.35316   -1499.8854      800.968   -1272.0665            0            0            0            0            0    -573.1491    -27.28144 
 4850000    331.54524   -127.69369    822.92604    31524.034   -1236.6409    394.32108   -842.31978   -1478.2376    815.32906   -1236.6409            0            0            0            0            0    -573.7323   -26.667368 
 4855000    336.29775    263.78554    826.80763    31376.039   -1242.2996    399.97344   -842.32612   -1475.9087    807.18479   -1242.2996            0            0            0            0            0   -573.57567   -26.793153 
 4860000    296.86064    204.61607    835.08651    31064.984    -1265.913    353.06919   -912.84386   -1494.3197    802.06681    -1265.913            0            0            0            0            0   -573.66012   -27.061435 
 4865000    300.67102    6.1418292    842.63385    30786.739   -1287.5695    357.60104   -929.96845   -1518.4284    804.20586   -1287.5695            0            0            0            0            0   -573.34693   -27.306011 
 4870000     328.6166   -51.930872    831.02023    31216.988   -1272.0545    390.83793   -881.21662    -1498.995    800.53793   -1272.0545            0            0            0            0            0   -573.59746   -26.929665 
 4875000    332.96748    164.16016     829.2863    31282.259   -1246.3487    396.01261   -850.33612   -1474.3188    801.54018   -1246.3487            0            0            0            0            0   -573.57013   -26.873476 
 4880000    333.71335   -126.74786    816.96759    31753.951   -1226.8788    396.89971   -829.97907   -1455.4494    802.41587   -1226.8788            0            0            0            0            0    -573.8452   -26.474282 
 4885000    314.03199    68.950828    824.45212    31465.682   -1241.7345    373.49182   -868.24263   -1470.0264    801.90047   -1241.7345            0            0            0            0            0   -573.60855   -26.716822 
 4890000    329.61207    157.21603    830.91578    31220.912   -1248.7034    392.02188    -856.6815   -1484.2197    809.19102   -1248.7034            0            0            0            0            0   -573.67469    -26.92628 
 4895000    336.43576    243.14014    827.57412    31346.979   -1237.4019    400.13759   -837.26435    -1469.688     805.9626   -1237.4019            0            0            0            0            0    -573.6765   -26.817992 
 4900000     323.3256   -205.45524    821.81444    31566.674   -1250.1694    384.54511   -865.62428   -1474.4876    797.83282   -1250.1694            0            0            0            0            0   -573.51464   -26.631346 
 4905000     340.8729   -23.657162    820.14686    31630.858   -1236.5261    405.41487   -831.11124   -1471.4454     808.5567   -1236.5261            0            0            0            0            0   -573.63737   -26.577307 
 4910000    339.78041    794.85224    838.74048    30929.649   -1245.3938    404.11552    -841.2783   -1472.6479    801.01584   -1245.3938            0            0            0            0            0   -573.76177   -27.179844 
 4915000    333.02933    35.014493    835.98524    31031.587   -1264.9642    396.08618   -868.87804   -1485.3751    794.09339   -1264.9642            0            0            0            0            0   -573.68254   -27.090559 
 4920000    310.81263    -352.6794    822.95659    31522.864   -1242.7068    369.66289   -873.04386   -1479.6699    810.68585   -1242.7068            0            0            0            0            0   -573.72266   -26.668358 
 4925000    342.51914    21.621966    838.22392     30948.71   -1280.1575    407.37282    -872.7847   -1506.6769    800.23767   -1280.1575            0            0            0            0            0   -573.71825   -27.163104 
 4930000    331.12292    312.81853    824.24147    31473.724   -1233.5562     393.8188   -839.73735   -1466.4236    806.40277   -1233.5562            0            0            0            0            0   -573.53536   -26.709995 
 4935000    341.84508   -118.74075    809.71179    32038.497   -1205.2943    406.57113    -798.7232   -1439.6762    808.27859   -1205.2943            0            0            0            0            0   -573.89667   -26.239153 
 4940000    327.68681    11.681106    817.54156    31731.657   -1219.8725    389.73208   -830.14045   -1452.3862    806.09099   -1219.8725            0            0            0            0            0   -573.57729   -26.492881 
 4945000    340.95546   -42.312931    822.49268    31540.644   -1242.4632    405.51307    -836.9501   -1475.4024    806.25644   -1242.4632            0            0            0            0            0   -573.31721   -26.653325 
 4950000    325.60105   -492.33126     830.1319    31250.394   -1268.6928    387.25139   -881.44145   -1499.7194    804.76981   -1268.6928            0            0            0            0            0   -573.74322   -26.900878 
 4955000    322.14199     628.0452    842.80155    30780.613   -1272.9261    383.13738   -889.78867   -1496.5958    797.29269   -1272.9261            0            0            0            0            0   -573.62298   -27.311445 
 4960000    343.15555     57.66645    826.97297    31369.766   -1241.8444    408.12972   -833.71466    -1467.838    799.82823   -1241.8444            0            0            0            0            0   -573.83456   -26.798511 
 4965000     338.8648   -275.63002    822.74276    31531.057   -1245.8855    403.02655   -842.85897   -1476.2878    804.33724   -1245.8855            0            0            0            0            0   -573.93495   -26.661429 
 4970000    321.10208   -555.96118    826.05436    31404.651   -1253.4681    381.90058    -871.5675   -1492.8349    813.07239   -1253.4681            0            0            0            0            0   -573.70558   -26.768743 
 4975000    319.99932    244.58656    816.06481    31789.079   -1211.6763    380.58902   -831.08729    -1446.121    808.18724   -1211.6763            0            0            0            0            0   -573.74251   -26.445026 
 4980000    340.26738    9.4602837    814.87925    31835.329   -1215.0643     404.6947   -810.36955   -1444.9064    803.38897   -1215.0643            0            0            0            0            0   -573.54677   -26.406608 
 4985000    312.95976    498.81733    833.13332    31137.812   -1262.4705    372.21656   -890.25391   -1493.1647    804.05318   -1262.4705            0            0            0            0            0   -573.35896   -26.998141 
 4990000     313.5545     197.3102    835.70451    31042.011   -1255.6373    372.92391   -882.71336   -1489.7313    807.81596   -1255.6373            0            0            0            0            0   -573.72194   -27.081462 
 4995000     330.7337   -566.42672     824.9194    31447.858   -1254.8413    393.35588   -861.48541   -1493.2573    812.05332   -1254.8413            0            0            0            0            0   -573.63732   -26.731964 
 5000000    338.51112    70.549431    831.10639    31213.752   -1249.4588     402.6059   -846.85295   -1482.2134    806.38594   -1249.4588            0            0            0            0            0   -573.63139   -26.932457 
Loop time of 165347 on 1 procs for 5000000 steps with 2400 atoms

Performance: 2.613 ns/day, 9.186 hours/ns, 30.239 timesteps/s
100.0% CPU use with 1 MPI tasks x 1 OpenMP threads

MPI task timing breakdown:
Section |  min time  |  avg time  |  max time  |%varavg| %total
---------------------------------------------------------------
Pair    | 1.5188e+05 | 1.5188e+05 | 1.5188e+05 |   0.0 | 91.86
Bond    | 7.9802     | 7.9802     | 7.9802     |   0.0 |  0.00
Kspace  | 5004.9     | 5004.9     | 5004.9     |   0.0 |  3.03
Neigh   | 4746.8     | 4746.8     | 4746.8     |   0.0 |  2.87
Comm    | 558.12     | 558.12     | 558.12     |   0.0 |  0.34
Output  | 0.30859    | 0.30859    | 0.30859    |   0.0 |  0.00
Modify  | 3019       | 3019       | 3019       |   0.0 |  1.83
Other   |            | 129.6      |            |       |  0.08

Nlocal:        2400.00 ave        2400 max        2400 min
Histogram: 1 0 0 0 0 0 0 0 0 0
Nghost:        18453.0 ave       18453 max       18453 min
Histogram: 1 0 0 0 0 0 0 0 0 0
Neighs:    1.78472e+06 ave 1.78472e+06 max 1.78472e+06 min
Histogram: 1 0 0 0 0 0 0 0 0 0

Total # of neighbors = 1784723
Ave neighs/atom = 743.63458
Ave special neighs/atom = 8.5000000
Neighbor list builds = 82476
Dangerous builds = 0
Total wall time: 55:02:00
