LAMMPS (29 Sep 2021 - Update 2)
OMP_NUM_THREADS environment is not set. Defaulting to 1 thread. (src/comm.cpp:98)
  using 1 OpenMP thread(s) per MPI task
Reading data file ...
  orthogonal box = (-15.466318 -15.466318 -15.466318) to (15.466318 15.466318 15.466318)
  1 by 1 by 1 MPI processor grid
  reading atoms ...
  2400 atoms
  scanning bonds ...
  3 = max bonds/atom
  scanning angles ...
  3 = max angles/atom
  scanning dihedrals ...
  4 = max dihedrals/atom
  reading bonds ...
  2400 bonds
  reading angles ...
  3600 angles
  reading dihedrals ...
  3600 dihedrals
Finding 1-2 1-3 1-4 neighbors ...
  special bond factors lj:    0        0        0       
  special bond factors coul:  0        0        0       
     3 = max # of 1-2 neighbors
     4 = max # of 1-3 neighbors
     8 = max # of 1-4 neighbors
    10 = max # of special neighbors
  special bonds CPU = 0.001 seconds
  read_data CPU = 0.015 seconds
  200 rigid bodies with 2400 atoms
PPPM initialization ...
  using 12-bit tables for long-range coulomb (src/kspace.cpp:340)
  G vector (1/distance) = 0.1428774
  grid = 6 6 6
  stencil order = 5
  estimated absolute RMS force accuracy = 0.0078609937
  estimated relative force accuracy = 2.3673149e-05
  using double precision FFTW3
  3d grid and FFT values/proc = 1331 216
Neighbor list info ...
  update every 1 steps, delay 10 steps, check yes
  max neighbors/atom: 2000, page size: 100000
  master list distance cutoff = 16.655
  ghost atom cutoff = 16.655
  binsize = 8.3275, bins = 4 4 4
  1 neighbor lists, perpetual/occasional/extra = 1 0 0
  (1) pair lj/cut/coul/long, perpetual
      attributes: half, newton on
      pair build: half/bin/newton
      stencil: half/bin/3d
      bin: standard
Setting up Verlet run ...
  Unit style    : real
  Current step  : 0
  Time step     : 1
Per MPI rank memory allocation (min/avg/max) = 29.12 | 29.12 | 29.12 Mbytes
Step Temp E_pair E_mol TotEng Press 
       0    326.44989     12647.25            0    13035.511    96943.119 
    5000    9806.3635    1361.3574            0    13024.489    66538.198 
Loop time of 210.252 on 1 procs for 5000 steps with 2400 atoms

Performance: 2.055 ns/day, 11.681 hours/ns, 23.781 timesteps/s
100.0% CPU use with 1 MPI tasks x 1 OpenMP threads

MPI task timing breakdown:
Section |  min time  |  avg time  |  max time  |%varavg| %total
---------------------------------------------------------------
Pair    | 174.89     | 174.89     | 174.89     |   0.0 | 83.18
Bond    | 0.0042845  | 0.0042845  | 0.0042845  |   0.0 |  0.00
Kspace  | 5.2685     | 5.2685     | 5.2685     |   0.0 |  2.51
Neigh   | 28.288     | 28.288     | 28.288     |   0.0 | 13.45
Comm    | 0.80279    | 0.80279    | 0.80279    |   0.0 |  0.38
Output  | 3.1801e-05 | 3.1801e-05 | 3.1801e-05 |   0.0 |  0.00
Modify  | 0.89441    | 0.89441    | 0.89441    |   0.0 |  0.43
Other   |            | 0.1095     |            |       |  0.05

Nlocal:        2400.00 ave        2400 max        2400 min
Histogram: 1 0 0 0 0 0 0 0 0 0
Nghost:        19292.0 ave       19292 max       19292 min
Histogram: 1 0 0 0 0 0 0 0 0 0
Neighs:    1.88211e+06 ave 1.88211e+06 max 1.88211e+06 min
Histogram: 1 0 0 0 0 0 0 0 0 0

Total # of neighbors = 1882111
Ave neighs/atom = 784.21292
Ave special neighs/atom = 8.5000000
Neighbor list builds = 433
Dangerous builds = 62
  create bodies CPU = 0.000 seconds
  200 rigid bodies with 2400 atoms
  3.8930168 = max distance from body owner to body atom
PPPM initialization ...
  using 12-bit tables for long-range coulomb (src/kspace.cpp:340)
  G vector (1/distance) = 0.1428774
  grid = 6 6 6
  stencil order = 5
  estimated absolute RMS force accuracy = 0.0078609937
  estimated relative force accuracy = 2.3673149e-05
  using double precision FFTW3
  3d grid and FFT values/proc = 1331 216
Setting up Verlet run ...
  Unit style    : real
  Current step  : 5000
  Time step     : 1
Per MPI rank memory allocation (min/avg/max) = 37.02 | 37.02 | 37.02 Mbytes
Step Temp E_pair E_mol TotEng Press Volume 
    5000    9806.3635    1361.3574            0    13024.489    65729.349    29597.212 
 1005000    341.38167   -1221.6967            0   -815.67674    395.19982     31420.86 
Loop time of 35559.7 on 1 procs for 1000000 steps with 2400 atoms

Performance: 2.430 ns/day, 9.878 hours/ns, 28.122 timesteps/s
99.8% CPU use with 1 MPI tasks x 1 OpenMP threads

MPI task timing breakdown:
Section |  min time  |  avg time  |  max time  |%varavg| %total
---------------------------------------------------------------
Pair    | 32649      | 32649      | 32649      |   0.0 | 91.81
Bond    | 1.6903     | 1.6903     | 1.6903     |   0.0 |  0.00
Kspace  | 1090.3     | 1090.3     | 1090.3     |   0.0 |  3.07
Neigh   | 1029.7     | 1029.7     | 1029.7     |   0.0 |  2.90
Comm    | 122.14     | 122.14     | 122.14     |   0.0 |  0.34
Output  | 3.1027e-05 | 3.1027e-05 | 3.1027e-05 |   0.0 |  0.00
Modify  | 639.87     | 639.87     | 639.87     |   0.0 |  1.80
Other   |            | 27.52      |            |       |  0.08

Nlocal:        2400.00 ave        2400 max        2400 min
Histogram: 1 0 0 0 0 0 0 0 0 0
Nghost:        18342.0 ave       18342 max       18342 min
Histogram: 1 0 0 0 0 0 0 0 0 0
Neighs:    1.77116e+06 ave 1.77116e+06 max 1.77116e+06 min
Histogram: 1 0 0 0 0 0 0 0 0 0

Total # of neighbors = 1771156
Ave neighs/atom = 737.98167
Ave special neighs/atom = 8.5000000
Neighbor list builds = 16682
Dangerous builds = 0
PPPM initialization ...
  using 12-bit tables for long-range coulomb (src/kspace.cpp:340)
  G vector (1/distance) = 0.14157998
  grid = 6 6 6
  stencil order = 5
  estimated absolute RMS force accuracy = 0.0082604127
  estimated relative force accuracy = 2.4875988e-05
  using double precision FFTW3
  3d grid and FFT values/proc = 1331 216
Setting up Verlet run ...
  Unit style    : real
  Current step  : 0
  Time step     : 1
Per MPI rank memory allocation (min/avg/max) = 37.03 | 37.03 | 37.03 Mbytes
Step Temp Press v_dens Volume PotEng KinEng TotEng E_vdwl E_coul E_pair E_bond E_angle E_dihed E_impro E_mol E_long E_tail 
       0    341.38167    1350.1705    825.62821     31420.86    -1221.733    406.01998   -815.71301   -1448.5798    800.43236    -1221.733            0            0            0            0            0   -573.58556   -26.754934 
    5000    330.90407   -223.18464    808.73812    32077.069   -1206.1792    393.55851   -812.62071   -1437.9375    805.32836   -1206.1792            0            0            0            0            0   -573.57009   -26.207601 
   10000    348.96145    213.90607    800.72782    32397.961   -1172.6807    415.03493   -757.64575   -1407.2959    808.13599   -1172.6807            0            0            0            0            0   -573.52081   -25.948023 
   15000    333.62231    495.52285    832.77558    31151.188   -1244.4164    396.79142   -847.62502   -1471.7119    800.80377   -1244.4164            0            0            0            0            0   -573.50829   -26.986548 
   20000    329.49633    -251.4916    799.90534    32431.273   -1175.2674    391.88422   -783.38317   -1408.9011    807.34783   -1175.2674            0            0            0            0            0   -573.71415    -25.92137 
   25000     327.8424   -104.54805    808.06712    32103.705   -1206.9486    389.91714   -817.03149   -1442.0367    808.89031   -1206.9486            0            0            0            0            0    -573.8022   -26.185857 
   30000    330.93347   -275.68146    824.49119    31464.191   -1265.3186    393.59347   -871.72516   -1490.2605    798.47162   -1265.3186            0            0            0            0            0   -573.52971   -26.718088 
   35000    341.70424   -151.35229    802.94371    32308.552   -1181.3981    406.40362   -774.99444   -1417.7064    809.71427   -1181.3981            0            0            0            0            0   -573.40594    -26.01983 
   40000    321.63484   -473.07243     817.3205     31740.24   -1250.2957    382.53421    -867.7615    -1483.571    806.94501   -1250.2957            0            0            0            0            0   -573.66967   -26.485718 
   45000    308.76765   -67.887939    821.28258    31587.116   -1240.0404     367.2307   -872.80968   -1464.1749    797.90491   -1240.0404            0            0            0            0            0   -573.77041   -26.614111 
   50000     339.5219   -101.77715    840.48605    30865.412   -1292.6968    403.80806   -888.88873    -1518.884    799.73531   -1292.6968            0            0            0            0            0   -573.54806    -27.23641 
   55000     331.1342    89.909771    826.62783    31382.864   -1246.5352    393.83221     -852.703   -1479.8994    806.86281   -1246.5352            0            0            0            0            0   -573.49866   -26.787327 
   60000    325.99317   -228.09621    815.78301     31800.06   -1226.8289    387.71777   -839.11117   -1457.9504    804.59658   -1226.8289            0            0            0            0            0   -573.47513   -26.435895 
   65000    331.45018    732.54367    842.43974    30793.833   -1266.6841    394.20803   -872.47608    -1497.883    804.95458   -1266.6841            0            0            0            0            0   -573.75572   -27.299721 
   70000    330.69186     -5.65008     820.5057    31617.024   -1229.2976    393.30612   -835.99148   -1460.2791    804.82349   -1229.2976            0            0            0            0            0   -573.84198   -26.588936 
   75000    315.62346   -239.18682    828.66608    31305.672   -1249.3832    375.38462   -873.99859   -1479.7944    804.17531   -1249.3832            0            0            0            0            0   -573.76417   -26.853378 
   80000    353.71963    366.69497    826.43291    31390.266   -1244.0064    420.69404   -823.31233   -1467.6174    797.20377   -1244.0064            0            0            0            0            0   -573.59277   -26.781011 
   85000    324.38765   -279.89242    803.61841    32281.427   -1199.2777    385.80825   -813.46942   -1435.7307    810.12639   -1199.2777            0            0            0            0            0   -573.67336   -26.041694 
   90000    337.69773   -79.501934    822.70639    31532.451   -1233.8239    401.63851   -832.18537   -1466.1566    805.92514   -1233.8239            0            0            0            0            0   -573.59246   -26.660251 
   95000    338.61346    511.36328    841.60876    30824.238   -1266.1032    402.72761   -863.37555   -1496.9951    804.59594   -1266.1032            0            0            0            0            0   -573.70401   -27.272792 
  100000    327.91924    25.303812     797.2662    32538.628   -1170.6138    390.00853   -780.60528   -1407.6494    810.63449   -1170.6138            0            0            0            0            0   -573.59888   -25.835847 
  105000    338.93792    436.02654    808.87236    32071.746   -1191.5632    403.11352    -788.4497   -1428.2905    810.00114   -1191.5632            0            0            0            0            0   -573.27386   -26.211951 
  110000    301.52774   -450.80723    807.53207    32124.976     -1212.11    358.61997   -853.49006    -1448.639    810.06872     -1212.11            0            0            0            0            0   -573.53971   -26.168518 
  115000    321.23183   -18.682856    805.79655    32194.167   -1195.5581    382.05489   -813.50324   -1423.7563    801.85673   -1195.5581            0            0            0            0            0   -573.65859   -26.112278 
  120000    332.27091    -44.72971    812.51667    31927.897   -1225.3745    395.18416    -830.1903   -1455.9801    804.05562   -1225.3745            0            0            0            0            0   -573.45001   -26.330047 
  125000    324.20165    -169.4341     821.9907    31559.905   -1237.8811    385.58703   -852.29408   -1480.6507    816.39947   -1237.8811            0            0            0            0            0   -573.62992   -26.637058 
  130000    323.62705    413.06468    813.64014    31883.811   -1199.7188    384.90363   -814.81521   -1435.2401    808.99152   -1199.7188            0            0            0            0            0   -573.47023   -26.366454 
  135000    359.05359   -263.78625    810.67724    32000.342   -1215.9243    427.03795    -788.8863   -1453.0458    810.71565   -1215.9243            0            0            0            0            0   -573.59408   -26.270439 
  140000    314.41269   -194.97981    826.41871    31390.805   -1244.4333     373.9446   -870.48869   -1481.8738     810.9198   -1244.4333            0            0            0            0            0   -573.47932    -26.78055 
  145000    336.92422    217.43809    818.86759    31680.273    -1218.323    400.71853   -817.60451    -1447.759    803.28491    -1218.323            0            0            0            0            0   -573.84901   -26.535852 
  150000    339.83933   -86.708431    849.27746    30545.905   -1313.8057     404.1856   -909.62015   -1545.2553    804.98868   -1313.8057            0            0            0            0            0   -573.53911     -27.5213 
  155000    323.71856    12.736685    794.16051    32665.876   -1169.1652    385.01247    -784.1527   -1401.2569    805.47253   -1169.1652            0            0            0            0            0   -573.38085   -25.735205 
  160000    338.50653    417.44253     825.6605    31419.631   -1217.7567    402.60044   -815.15623   -1457.3513    813.11871   -1217.7567            0            0            0            0            0   -573.52405    -26.75598 
  165000    322.72476   -141.31914    812.26124    31937.937   -1228.0123     383.8305   -844.18178    -1460.614    806.27748   -1228.0123            0            0            0            0            0   -573.67579    -26.32177 
  170000    328.52159    467.76414    823.35265      31507.7   -1221.4656    390.72493   -830.74071   -1462.1427     814.2664   -1221.4656            0            0            0            0            0   -573.58933   -26.681193 
  175000    338.41242   -73.977161     828.8762    31297.736   -1252.1299    402.48851   -849.64138   -1483.4285    804.94379   -1252.1299            0            0            0            0            0    -573.6452   -26.860186 
  180000    347.19945   -325.45961    819.11365    31670.756   -1236.9279    412.93931   -823.98857   -1472.5825    808.89726   -1236.9279            0            0            0            0            0   -573.24268   -26.543826 
  185000    335.04342    509.28046    828.32412    31318.596   -1235.3363    398.48162   -836.85466   -1465.9241     804.2301   -1235.3363            0            0            0            0            0   -573.64228   -26.842296 
  190000    347.04761   -507.14781    826.80604    31376.099   -1268.4144    412.75872   -855.65565   -1498.6096    803.72682   -1268.4144            0            0            0            0            0   -573.53158   -26.793102 
  195000    340.94956    142.83622    810.35282    32013.153     -1199.25    405.50605   -793.74399   -1435.9604    810.42414     -1199.25            0            0            0            0            0   -573.71376   -26.259926 
  200000    348.53795    169.86674    817.91811    31717.049   -1232.0202    414.53125   -817.48895   -1451.0764     792.8039   -1232.0202            0            0            0            0            0   -573.74771   -26.505084 
  205000    314.37551    348.09565    836.39561    31016.362   -1267.0073    373.90038   -893.10694   -1493.9699    800.43144   -1267.0073            0            0            0            0            0   -573.46889   -27.103857 
  210000    328.49915    226.94893     824.0517    31480.972    -1232.717    390.69823   -842.01879   -1464.2396    805.14242    -1232.717            0            0            0            0            0   -573.61985   -26.703846 
  215000    344.79346    329.43528    836.41156     31015.77   -1264.0852    410.07776   -854.00747   -1490.5749    799.78835   -1264.0852            0            0            0            0            0   -573.29872   -27.104374 
  220000    370.54422   -67.772003    812.83227      31915.5   -1219.0616    440.70425   -778.35731   -1447.9156    802.30271   -1219.0616            0            0            0            0            0    -573.4487   -26.340274 
  225000     342.9437    12.064443    828.03599    31329.494   -1246.1122    407.87776   -838.23449   -1478.7998     806.0672   -1246.1122            0            0            0            0            0    -573.3797   -26.832959 
  230000    342.98379   -274.17176    837.72799    30967.031   -1278.6334    407.92544   -870.70798   -1509.5613    804.29211   -1278.6334            0            0            0            0            0   -573.36425   -27.147034 
  235000    342.46933    33.943253    821.76139    31568.712   -1240.1848    407.31357   -832.87125   -1460.8714    794.46921   -1240.1848            0            0            0            0            0   -573.78261   -26.629627 
  240000    308.73999     -406.099     802.7672    32315.656   -1203.8761    367.19781   -836.67826   -1429.7959     799.6549   -1203.8761            0            0            0            0            0   -573.73509    -26.01411 
  245000    356.26072    349.66908    837.08026    30990.993   -1272.0567    423.71627   -848.34046   -1499.0672    800.41053   -1272.0567            0            0            0            0            0   -573.40004   -27.126044 
  250000    340.75935   -183.41829    827.59049    31346.359   -1268.6711    405.27982   -863.39127   -1491.3004    796.15776   -1268.6711            0            0            0            0            0   -573.52844   -26.818522 
  255000    337.11231    188.91919    832.32743    31167.961   -1254.9486    400.94224    -854.0064   -1483.9349    802.73683   -1254.9486            0            0            0            0            0   -573.75055   -26.972025 
  260000    330.38392   -161.16564    816.45268    31773.977   -1219.1974    392.93987   -826.25757   -1450.6904    804.99143   -1219.1974            0            0            0            0            0   -573.49845   -26.457595 
  265000    364.26037    1.7981077    817.77055    31722.772   -1226.6949     433.2306   -793.46434   -1459.2767    806.34987   -1226.6949            0            0            0            0            0    -573.7681   -26.500302 
  270000    342.74051   -284.25587    827.24373    31359.499   -1259.4445    407.63609   -851.80844   -1490.1913    804.23984   -1259.4445            0            0            0            0            0   -573.49313   -26.807285 
  275000    331.76875   -235.84669    811.51326    31967.375   -1215.6292    394.58691   -821.04225    -1452.741     810.5968   -1215.6292            0            0            0            0            0     -573.485   -26.297531 
  280000    354.34918    119.51157    809.64404    32041.178   -1209.9981     421.4428   -788.55533   -1451.6901    814.93857   -1209.9981            0            0            0            0            0   -573.24661   -26.236958 
  285000    324.62123   -141.20823    813.08207    31905.695   -1217.9731    386.08605   -831.88702   -1452.6668    807.95468   -1217.9731            0            0            0            0            0   -573.26092   -26.348369 
  290000    325.72619    286.76345    814.55116    31848.151   -1218.9958    387.40023   -831.59561   -1442.2978    796.51951   -1218.9958            0            0            0            0            0   -573.21757   -26.395976 
  295000    337.14508   -301.98955    818.52817     31693.41   -1246.9411    400.98122   -845.95984   -1477.1141     803.6879   -1246.9411            0            0            0            0            0   -573.51488   -26.524853 
  300000    332.67468    445.20485    841.63474    30823.286   -1262.7499    395.66437   -867.08556   -1494.7921    805.54059   -1262.7499            0            0            0            0            0   -573.49841   -27.273634 
  305000    316.46762   -461.54791    815.48627    31811.631   -1236.1721    376.38862   -859.78347   -1462.8308    800.03493   -1236.1721            0            0            0            0            0   -573.37623   -26.426279 
  310000    331.97299   -70.417893    814.72562    31841.332   -1227.4415    394.82982   -832.61171   -1459.3327    805.42124   -1227.4415            0            0            0            0            0   -573.53011   -26.401629 
  315000    335.58405   -57.088672    820.23398    31627.498   -1233.4259    399.12461   -834.30125   -1465.5338    805.69893   -1233.4259            0            0            0            0            0   -573.59096   -26.580131 
  320000    345.75427   -415.87505    817.94296    31716.085   -1244.2303    411.22049   -833.00984   -1473.4272    802.93319   -1244.2303            0            0            0            0            0   -573.73632   -26.505889 
  325000     346.0383   -28.960675    824.22557    31474.331   -1245.3364     411.5583   -833.77809   -1474.3678    802.50056   -1245.3364            0            0            0            0            0   -573.46913    -26.70948 
  330000    339.12692    239.78523    820.08546    31633.226   -1215.5006     403.3383   -812.16226   -1450.8371    808.77006   -1215.5006            0            0            0            0            0   -573.43354   -26.575318 
  335000    315.01605    53.566734    817.09074    31749.165   -1223.3834    374.66219   -848.72118   -1452.5458    802.96035   -1223.3834            0            0            0            0            0   -573.79794   -26.478272 
  340000    333.43568   -237.68258    807.61942    32121.502   -1204.9249    396.56946   -808.35547   -1436.4448    804.76481   -1204.9249            0            0            0            0            0   -573.24492   -26.171349 
  345000    349.32017    39.593354    826.38805     31391.97   -1234.5747    415.46157   -819.11313   -1480.9463    819.88153   -1234.5747            0            0            0            0            0   -573.50992   -26.779557 
  350000    351.96638    -66.98287     830.5688    31233.955    -1249.804    418.60882   -831.19517   -1482.9449    806.78044    -1249.804            0            0            0            0            0   -573.63952   -26.915036 
  355000       341.98   0.65651695    824.74042    31454.683   -1244.0476    406.73159   -837.31603   -1471.1824    800.73667   -1244.0476            0            0            0            0            0    -573.6019   -26.726164 
  360000    349.30401     141.9326    823.75527    31492.301   -1235.9914    415.44235   -820.54904   -1468.3511    806.15929   -1235.9914            0            0            0            0            0   -573.79959    -26.69424 
  365000    321.92953   -78.255318    826.69442    31380.336   -1244.5316     382.8847   -861.64685   -1481.6365    810.26795   -1244.5316            0            0            0            0            0   -573.16303   -26.789485 
  370000    343.31804    203.22875    827.36318    31354.971   -1238.3715    408.32298   -830.04856   -1469.7268    804.98861   -1238.3715            0            0            0            0            0    -573.6333   -26.811156 
  375000    320.55578    210.60293    812.81021    31916.366   -1208.9064    381.25085    -827.6555   -1444.0111    808.78194   -1208.9064            0            0            0            0            0   -573.67719    -26.33956 
  380000    324.97636    -299.9552    829.86029    31260.622   -1272.4236    386.50843   -885.91521   -1501.9979    803.17202   -1272.4236            0            0            0            0            0   -573.59778   -26.892077 
  385000    321.49359    -582.8507    812.81685    31916.106   -1231.9575    382.36622   -849.59129   -1466.6457    808.21201   -1231.9575            0            0            0            0            0   -573.52383   -26.339775 
  390000    341.37324    71.442395    815.42088    31814.182   -1216.9665    406.00995   -810.95654   -1451.4111    807.96789   -1216.9665            0            0            0            0            0   -573.52323    -26.42416 
  395000    324.80973    494.85106    841.35245    30833.628   -1264.5918    386.31025   -878.28153   -1498.1298    806.95582   -1264.5918            0            0            0            0            0   -573.41782   -27.264486 
  400000    336.74694   -106.80069    820.53389    31615.938   -1239.6261    400.50769   -839.11844    -1472.029    805.80189   -1239.6261            0            0            0            0            0   -573.39898    -26.58985 
  405000    337.76544   -40.449444    806.32872    32172.919   -1202.2413    401.71903   -800.52231   -1436.2843    807.43626   -1202.2413            0            0            0            0            0   -573.39333   -26.129523 
  410000    355.44025    119.87516    821.90001    31563.388   -1222.3258    422.74044   -799.58531   -1460.2291    811.23418   -1222.3258            0            0            0            0            0   -573.33084   -26.634119 
  415000    354.22069    637.06202    825.83222    31413.098   -1234.3532    421.28998   -813.06318   -1467.3944    806.67505   -1234.3532            0            0            0            0            0   -573.63384   -26.761545 
  420000    340.82301    94.780212    830.83255     31224.04   -1245.4412    405.35553   -840.08569   -1473.6001    801.79016   -1245.4412            0            0            0            0            0   -573.63129   -26.923583 
  425000    335.07492   -206.22477    821.15824      31591.9    -1237.593    398.51908   -839.07391   -1467.5394    803.50037    -1237.593            0            0            0            0            0   -573.55396   -26.610082 
  430000    354.53258    278.22322    832.69692    31154.131   -1253.7883    421.66091   -832.12743   -1483.8353    803.64156   -1253.7883            0            0            0            0            0   -573.59462   -26.983999 
  435000    366.75646   -315.33859    819.11054    31670.876   -1236.2707     436.1993   -800.07143   -1465.9483     803.3974   -1236.2707            0            0            0            0            0   -573.71985   -26.543725 
  440000    358.59963    -168.5873    815.67778    31804.162   -1226.2692    426.49803   -799.77116   -1462.5146    809.64144   -1226.2692            0            0            0            0            0   -573.39607   -26.432485 
  445000    331.87464    328.23776    835.15007    31062.619   -1252.6696    394.71285   -857.95679   -1479.7525    800.44757   -1252.6696            0            0            0            0            0   -573.36466   -27.063495 
  450000    330.11624    204.48311    831.91094    31183.565   -1251.7884    392.62151   -859.16685   -1484.4658    805.96438   -1251.7884            0            0            0            0            0   -573.28693   -26.958529 
  455000    345.91035   -80.612508    821.85332    31565.181    -1233.833    411.40612   -822.42689   -1461.9874    801.74006    -1233.833            0            0            0            0            0   -573.58565   -26.632606 
  460000    336.62041   -23.943615    846.44836    30647.999   -1314.6145     400.3572   -914.25733   -1535.9738    794.95399   -1314.6145            0            0            0            0            0   -573.59469   -27.429622 
  465000    320.87565    788.22984    835.57363    31046.873   -1244.3209    381.63128   -862.68967   -1479.1328    808.43118   -1244.3209            0            0            0            0            0   -573.61929   -27.077221 
  470000     341.9958   -507.46353    816.02726    31790.542   -1260.1247    406.75038   -853.37432   -1490.2155    803.53372   -1260.1247            0            0            0            0            0   -573.44289    -26.44381 
  475000    329.39169   -55.575973    827.95163    31332.686   -1256.4472    391.75976   -864.68745   -1480.6654      797.685   -1256.4472            0            0            0            0            0   -573.46679   -26.830225 
  480000    341.85221    126.06845    819.06023    31672.822   -1218.8235    406.57961   -812.24384   -1447.7811    802.45696   -1218.8235            0            0            0            0            0    -573.4993   -26.542095 
  485000    350.54823    827.29692    817.16378    31746.327   -1193.5086    416.92216   -776.58639   -1426.5363    806.69323   -1193.5086            0            0            0            0            0   -573.66549   -26.480639 
  490000    366.10937   -268.71927    824.04164    31481.356   -1241.9935    435.42969   -806.56385   -1474.9486    806.19417   -1241.9935            0            0            0            0            0   -573.23914    -26.70352 
  495000    332.57843    100.18507    808.46995    32087.709   -1202.1234     395.5499   -806.57347   -1427.7992    799.40924   -1202.1234            0            0            0            0            0   -573.73339   -26.198911 
  500000    331.01665   -166.53684    816.43681    31774.595   -1228.2277    393.69241   -834.53529   -1459.8735    805.31969   -1228.2277            0            0            0            0            0   -573.67394   -26.457081 
  505000    328.71211   -93.932121    824.98504    31445.356   -1237.9896    390.95152   -847.03804   -1468.9416    804.79538   -1237.9896            0            0            0            0            0   -573.84339   -26.734091 
  510000    350.22152   -402.57933    827.55226    31347.807   -1264.2663    416.53358   -847.73268   -1496.1578    805.37721   -1264.2663            0            0            0            0            0    -573.4857   -26.817283 
  515000    348.94698    79.232103    821.70622    31570.832    -1232.125    415.01772   -817.10728    -1464.569    805.96421    -1232.125            0            0            0            0            0   -573.52022   -26.627839 
  520000    359.70504   -365.66256    836.64017    31007.295   -1291.3449    427.81275   -863.53211   -1516.9853    799.03122   -1291.3449            0            0            0            0            0   -573.39076   -27.111782 
  525000    339.20806   -58.592274    834.76649    31076.893   -1258.9526     403.4348   -855.51777   -1489.6802    804.04448   -1258.9526            0            0            0            0            0   -573.31687   -27.051064 
  530000    324.37645   -67.911427    808.03103    32105.139   -1214.5347    385.79492   -828.73973    -1445.175    804.32072   -1214.5347            0            0            0            0            0   -573.68037   -26.184687 
  535000    329.97161    251.20195     824.3169    31470.844   -1230.3281    392.44949   -837.87862   -1462.5354    805.54064   -1230.3281            0            0            0            0            0   -573.33333    -26.71244 
  540000    338.03397    152.77026    813.24844    31899.168   -1202.6701     402.0384   -800.63167   -1434.8794    805.59218   -1202.6701            0            0            0            0            0   -573.38286   -26.353761 
  545000    372.70012    82.005543    814.37474    31855.051   -1220.0217    443.26836   -776.75329    -1452.356    805.71308   -1220.0217            0            0            0            0            0   -573.37878   -26.390259 
  550000    333.08686   -376.88286    831.18224    31210.904   -1283.3509    396.15459   -887.19632   -1507.4576    797.42721   -1283.3509            0            0            0            0            0   -573.32055   -26.934915 
  555000    333.94587   -216.88761    819.76876    31645.447   -1231.8008    397.17625    -834.6245   -1467.8829    809.52582   -1231.8008            0            0            0            0            0   -573.44364   -26.565055 
  560000    321.96867   -287.32431    822.67671    31533.588   -1248.9037    382.93125   -865.97247     -1479.57    804.22235   -1248.9037            0            0            0            0            0   -573.55609   -26.659289 
  565000    331.73016   -65.052242       822.98    31521.967   -1243.5643    394.54101    -849.0233   -1463.8519    793.96476   -1243.5643            0            0            0            0            0   -573.67713   -26.669117 
  570000    328.49756    416.33382    823.14779    31515.542   -1212.7998    390.69634   -822.10349   -1446.4633      807.114   -1212.7998            0            0            0            0            0   -573.45049   -26.674554 
  575000    334.79539     222.0197     812.0104    31947.803   -1222.1591    398.18662    -823.9725   -1450.8226    801.91503   -1222.1591            0            0            0            0            0   -573.25154   -26.313641 
  580000    327.47496   -14.392675    836.66585    31006.343   -1279.1668    389.48011   -889.68673   -1509.3145    803.88703   -1279.1668            0            0            0            0            0   -573.73936   -27.112615 
  585000    329.52068   -65.050668    824.01422    31482.404   -1245.0965    391.91319   -853.18333   -1476.2417    804.69283   -1245.0965            0            0            0            0            0   -573.54768   -26.702632 
  590000    328.28202   -206.27332    822.54492    31538.641   -1239.2817       390.44   -848.84167   -1472.6317    806.96752   -1239.2817            0            0            0            0            0    -573.6175   -26.655018 
  595000    324.07205    121.30067    826.49607    31387.867   -1242.9782    385.43289   -857.54536   -1477.7447    808.26937   -1242.9782            0            0            0            0            0   -573.50294   -26.783057 
  600000    335.90478    92.313954     820.8259    31604.691   -1246.7041    399.50607   -847.19804   -1466.0953    792.89663   -1246.7041            0            0            0            0            0   -573.50539   -26.599312 
  605000    332.96753   -347.78918    818.12385    31709.073   -1246.4507    396.01267   -850.43808   -1473.0457    800.28101   -1246.4507            0            0            0            0            0   -573.68605   -26.511751 
  610000    288.36201    147.30429    845.15317    30694.967   -1294.6815     342.9614   -951.72008   -1520.3872    799.27867   -1294.6815            0            0            0            0            0   -573.57298   -27.387651 
  615000    343.37468   -120.23437    825.12171    31440.148   -1254.4993    408.39034   -846.10891   -1486.8459    805.78362   -1254.4993            0            0            0            0            0   -573.43699    -26.73852 
  620000    330.12542    193.87984    825.72812    31417.059   -1238.4059    392.63242   -845.77349   -1468.6598    803.87248   -1238.4059            0            0            0            0            0   -573.61858   -26.758171 
  625000    309.09619    283.76914    827.89438    31334.853    -1233.372    367.62145   -865.75059     -1464.32    804.25709    -1233.372            0            0            0            0            0    -573.3091    -26.82837 
  630000    316.26939   -274.18084    827.28676    31357.867   -1249.8274    376.15285   -873.67456   -1485.3809    809.14296   -1249.8274            0            0            0            0            0   -573.58946    -26.80868 
  635000     318.2751    335.39077    826.08217    31403.594   -1225.7047    378.53833   -847.16638   -1458.3832    806.42939   -1225.7047            0            0            0            0            0   -573.75086   -26.769644 
  640000     342.5535    102.11152    818.11943    31709.244   -1228.4742    407.41368   -821.06056   -1460.0327      805.233   -1228.4742            0            0            0            0            0   -573.67451   -26.511607 
  645000    347.52662   -291.96794    800.82781    32393.916    -1196.586    413.32843   -783.25762   -1430.0735    806.86587    -1196.586            0            0            0            0            0   -573.37845   -25.951263 
  650000     329.4934   -236.95692    823.00201    31521.124    -1241.602    391.88074   -849.72128   -1473.3727    805.32099    -1241.602            0            0            0            0            0   -573.55032    -26.66983 
  655000    329.19073    -119.3752    834.89256      31072.2   -1277.4829    391.52075   -885.96212   -1500.8264    797.02702   -1277.4829            0            0            0            0            0   -573.68346    -27.05515 
  660000    358.42116    171.16179    826.21028    31398.724   -1247.6869    426.28577   -821.40108   -1478.8052    804.54441   -1247.6869            0            0            0            0            0   -573.42606   -26.773796 
  665000     355.0616   -111.27553    817.10898    31748.456   -1229.3674    422.29011    -807.0773   -1459.7072    803.88295   -1229.3674            0            0            0            0            0   -573.54317   -26.478863 
  670000     336.6311    18.750123    808.46766      32087.8    -1200.393    400.36991   -800.02306     -1435.21    808.38053    -1200.393            0            0            0            0            0   -573.56347   -26.198837 
  675000    340.98851    551.26676    842.96663    30774.585    -1267.863    405.55237    -862.3106   -1493.4848    799.23822    -1267.863            0            0            0            0            0   -573.61637   -27.316795 
  680000    334.69806     340.4014    842.45623     30793.23   -1275.3735    398.07087   -877.30261   -1505.6448    803.76637   -1275.3735            0            0            0            0            0   -573.49501   -27.300255 
  685000     351.8496    144.29845    822.68711     31533.19   -1236.3133    418.46993    -817.8434   -1463.4911    800.70998   -1236.3133            0            0            0            0            0   -573.53224   -26.659626 
  690000    330.39778    401.95459    833.10498    31138.871   -1242.0046    392.95636    -849.0482   -1475.4884    807.11051   -1242.0046            0            0            0            0            0   -573.62661   -26.997222 
  695000    368.86392     -257.251    812.03486    31946.841   -1237.8457     438.7058   -799.13992   -1465.4282    801.07923   -1237.8457            0            0            0            0            0   -573.49676   -26.314434 
  700000     349.9191    617.50888    841.00072    30846.524   -1272.0314     416.1739   -855.85746   -1498.6169    800.22014   -1272.0314            0            0            0            0            0   -573.63463   -27.253088 
  705000    346.27317    290.04736    800.42576    32410.187   -1160.6265    411.83764   -748.78885   -1394.8092    807.74534   -1160.6265            0            0            0            0            0    -573.5626   -25.938234 
  710000    355.22021   -537.17601     799.0719    32465.099   -1203.4233    422.47875   -780.94452   -1441.0493    811.25498   -1203.4233            0            0            0            0            0   -573.62891   -25.894362 
  715000    369.08622   -88.311122    818.16562    31707.454   -1223.4262    438.97019   -784.45602   -1459.8852    809.98332   -1223.4262            0            0            0            0            0   -573.52436   -26.513104 
  720000    326.61859    41.577222    817.41216    31736.681   -1222.3285     388.4616   -833.86687   -1451.6316    803.13819   -1222.3285            0            0            0            0            0    -573.8351   -26.488688 
  725000    355.91515    183.33976    813.43853    31891.714   -1203.1115    423.30527   -779.80624    -1436.973    807.45457   -1203.1115            0            0            0            0            0   -573.59311    -26.35992 
  730000    339.09276    196.02335    808.19859    32098.483   -1181.1617    403.29767   -777.86401   -1421.0951    813.40448   -1181.1617            0            0            0            0            0   -573.47104   -26.190117 
  735000    335.63328    165.60275    826.00975    31406.347   -1255.8428    399.18316   -856.65964    -1479.722    797.38194   -1255.8428            0            0            0            0            0    -573.5027   -26.767298 
  740000    352.82473    239.41671     834.4241    31089.645   -1266.1078     419.6297   -846.47807   -1492.7191    800.25508   -1266.1078            0            0            0            0            0   -573.64371   -27.039969 
  745000    342.30137    115.24675    816.38077    31776.776   -1207.5714    407.11381    -800.4576   -1438.0677    803.91531   -1207.5714            0            0            0            0            0   -573.41899   -26.455265 
  750000    315.14841   -16.125681    805.85701    32191.751   -1192.6449    374.81962   -817.82524   -1420.9415    801.92128   -1192.6449            0            0            0            0            0    -573.6246   -26.114237 
  755000    331.29842    -194.7558    833.76479    31114.229   -1275.3503    394.02752   -881.32278   -1500.3693    798.52926   -1275.3503            0            0            0            0            0   -573.51028   -27.018604 
  760000    328.10294   -401.65107     837.7031    30967.951   -1289.6216      390.227   -899.39461   -1519.2633    802.84574   -1289.6216            0            0            0            0            0   -573.20401   -27.146227 
  765000    344.70306    134.93284    828.44505    31314.025   -1249.4053    409.97025   -839.43507   -1479.0249    803.12337   -1249.4053            0            0            0            0            0   -573.50384   -26.846215 
  770000    337.68129    95.321001    824.67762    31457.078   -1236.5344    401.61895   -834.91544   -1464.9707    802.05732   -1236.5344            0            0            0            0            0   -573.62099   -26.724129 
  775000    319.96313    341.61859    813.93157    31872.395   -1201.3668    380.54597   -820.82081   -1435.8393    808.04854   -1201.3668            0            0            0            0            0   -573.57598   -26.375898 
  780000     319.8374    44.097856    811.48647     31968.43    -1201.811    380.39644   -821.41455   -1439.5059    811.35687    -1201.811            0            0            0            0            0   -573.66201   -26.296663 
  785000    328.70364   -231.17685    817.77267     31722.69   -1229.2427    390.94145   -838.30124   -1462.6375    806.88351   -1229.2427            0            0            0            0            0   -573.48874   -26.500371 
  790000    353.39244    98.992144    815.85304     31797.33   -1225.3625     420.3049   -805.05757   -1453.6268    801.92275   -1225.3625            0            0            0            0            0   -573.65838   -26.438164 
  795000     340.2222    100.39941    840.44628    30866.873   -1278.2682    404.64096   -873.62728   -1504.3849    799.56491   -1278.2682            0            0            0            0            0   -573.44822   -27.235121 
  800000    333.91645   -35.359197    830.14022     31250.08   -1266.2662    397.14126   -869.12493   -1487.2322    794.58644   -1266.2662            0            0            0            0            0   -573.62039   -26.901148 
  805000    334.12908   -131.10682    837.39183    30979.462   -1284.8102    397.39415   -887.41608   -1510.7536    799.52374   -1284.8102            0            0            0            0            0   -573.58037    -27.13614 
  810000    340.07608   -289.47161    793.74988    32682.775   -1169.2617    404.46718   -764.79456   -1410.2208     814.4297   -1169.2617            0            0            0            0            0   -573.47068   -25.721899 
  815000    330.65112   -66.597303    816.91455    31756.012   -1228.1538    393.25766   -834.89611   -1457.2475    802.54993   -1228.1538            0            0            0            0            0   -573.45625   -26.472563 
  820000    358.60255    73.302061    843.94535    30738.896   -1296.4087    426.50151   -869.90722   -1522.3322    799.40881   -1296.4087            0            0            0            0            0    -573.4853   -27.348511 
  825000    322.81969    36.476903    820.16485    31630.164   -1236.4205     383.9434   -852.47708    -1458.598    795.62804   -1236.4205            0            0            0            0            0   -573.45055   -26.577891 
  830000    309.23361    430.18553    839.56113    30899.416   -1260.2622    367.78489   -892.47735    -1492.718    806.07937   -1260.2622            0            0            0            0            0   -573.62358   -27.206438 
  835000    345.02863    170.93116    814.45374    31851.961   -1214.5638    410.35745   -804.20635   -1439.8587    798.81285   -1214.5638            0            0            0            0            0   -573.51797   -26.392819 
  840000    310.70154    13.804995    838.83555    30926.143   -1274.1698    369.53077   -904.63905   -1503.0985    802.59586   -1274.1698            0            0            0            0            0   -573.66716   -27.182925 
  845000     325.0032   -158.76825    810.89247    31991.848   -1210.1764    386.54035   -823.63605   -1440.6246    804.07854   -1210.1764            0            0            0            0            0   -573.63038   -26.277414 
  850000    365.27405   -75.251476    816.96456    31754.069   -1223.3486    434.43622   -788.91242    -1456.418    806.72586   -1223.3486            0            0            0            0            0   -573.65651   -26.474183 
  855000    342.85045    77.447162     824.7884    31452.853   -1235.0701    407.76685   -827.30326    -1469.037    807.11139   -1235.0701            0            0            0            0            0   -573.14453   -26.727719 
  860000    324.05322    303.73321     818.5886     31691.07   -1225.0579     385.4105   -839.64736   -1454.9828    803.61943   -1225.0579            0            0            0            0            0   -573.69453   -26.526811 
  865000    330.05942    279.02265    809.80422     32034.84   -1193.0775    392.55393   -800.52353   -1423.4482    804.07876   -1193.0775            0            0            0            0            0   -573.70806   -26.242149 
  870000    308.27939    293.19864    830.38672    31240.804   -1261.4337       366.65   -894.78372   -1481.2004    793.57181   -1261.4337            0            0            0            0            0    -573.8051   -26.909136 
  875000    336.47449   -272.38539    821.02397    31597.066    -1245.809    400.18365   -845.62532   -1481.0519    808.68758    -1245.809            0            0            0            0            0   -573.44465   -26.605731 
  880000    323.91854   -247.85978    808.63202    32081.278   -1216.6687    385.25031   -831.41841   -1447.4886    804.36356   -1216.6687            0            0            0            0            0   -573.54371   -26.204163 
  885000    338.79195     264.4124    817.31131    31740.597   -1221.7183     402.9399   -818.77843   -1449.8306    801.45542   -1221.7183            0            0            0            0            0   -573.34315    -26.48542 
  890000    366.01569    616.25043    833.10762    31138.772   -1249.6018    435.31827   -814.28355    -1478.415     802.3966   -1249.6018            0            0            0            0            0   -573.58345   -26.997308 
  895000    325.99263    42.319758    826.80573    31376.111   -1242.7971    387.71713   -855.07998   -1479.7916    810.56656   -1242.7971            0            0            0            0            0   -573.57207   -26.793092 
  900000    337.37132    149.47855    818.48823    31694.956    -1212.087    401.25029   -810.83668   -1447.8583      809.478    -1212.087            0            0            0            0            0   -573.70662   -26.523559 
  905000    330.70952    295.80272    822.81104     31528.44    -1222.367    393.32712   -829.03991   -1451.8478    803.19598    -1222.367            0            0            0            0            0   -573.71522   -26.663642 
  910000    351.30815   -434.68988    796.47608    32570.907   -1180.0871    417.82597   -762.26112   -1415.5493     809.0864   -1180.0871            0            0            0            0            0   -573.62423   -25.810243 
  915000    344.13596   -230.30353    810.00498      32026.9   -1207.3324    409.29576   -798.03659   -1444.8985    811.02934   -1207.3324            0            0            0            0            0   -573.46316   -26.248654 
  920000    324.83695   -526.65084    805.37306    32211.096   -1225.2064    386.34262   -838.86374   -1461.1459    809.45385   -1225.2064            0            0            0            0            0   -573.51429   -26.098554 
  925000    323.32971    526.38701    830.33417    31242.781   -1238.9742       384.55   -854.42418   -1472.6399     807.1876   -1238.9742            0            0            0            0            0   -573.52191   -26.907433 
  930000    324.15825     95.20661    821.22928    31589.167   -1230.6514    385.53541   -845.11598   -1463.6062    806.22638   -1230.6514            0            0            0            0            0   -573.27156   -26.612384 
  935000    327.24367    7.0684037       813.12    31904.207   -1223.6806    389.20504   -834.47557   -1452.3187    802.30128   -1223.6806            0            0            0            0            0    -573.6632   -26.349598 
  940000    350.44301    42.370077    813.30585    31896.916   -1220.0059    416.79701   -803.20884   -1453.7986    807.45409   -1220.0059            0            0            0            0            0   -573.66135   -26.355621 
  945000    336.83643   -290.28008    814.44302     31852.38    -1231.505    400.61412   -830.89087   -1467.0644    809.10227    -1231.505            0            0            0            0            0    -573.5429   -26.392472 
  950000    331.80396    -147.4405    816.00663    31791.345   -1225.0838    394.62878   -830.45505   -1460.2528    808.72878   -1225.0838            0            0            0            0            0   -573.55984   -26.443141 
  955000    326.87258    156.56228    812.37601    31933.425   -1211.8333    388.76368   -823.06958   -1445.8444    807.31833   -1211.8333            0            0            0            0            0    -573.3072   -26.325489 
  960000    339.51013    315.65086    832.66432     31155.35   -1255.1131    403.79406     -851.319    -1482.582    800.96677   -1255.1131            0            0            0            0            0   -573.49788   -26.982943 
  965000    325.48567    463.10997    823.20551    31513.332    -1231.595    387.11417   -844.48085   -1457.5437    799.28513    -1231.595            0            0            0            0            0   -573.33647   -26.676425 
  970000    351.52834    249.11154    831.76137    31189.172   -1245.4149    418.08785    -827.3271   -1487.3696    815.53118   -1245.4149            0            0            0            0            0   -573.57649   -26.953682 
  975000    343.00706   -136.66196    826.18643    31399.631   -1262.5889    407.95311   -854.63579    -1487.723     798.5898   -1262.5889            0            0            0            0            0   -573.45574   -26.773023 
  980000    342.07621   -368.73449    815.91934    31794.747   -1242.0003    406.84602   -835.15426   -1467.5339    798.90887   -1242.0003            0            0            0            0            0   -573.37523   -26.440312 
  985000    358.03569   -106.69305    821.55524    31576.633   -1238.5599    425.82732   -812.73256    -1463.161    798.05685   -1238.5599            0            0            0            0            0   -573.45572   -26.622947 
  990000     353.7359    112.09284    823.22992    31512.398   -1237.5523    420.71339   -816.83888   -1467.8108    804.02403   -1237.5523            0            0            0            0            0   -573.76548   -26.677216 
  995000    336.16464   -135.08943    803.21244    32297.742   -1206.2007    399.81513   -806.38561   -1440.1383    807.58496   -1206.2007            0            0            0            0            0   -573.64744   -26.028539 
 1000000    316.32988    67.086554    819.56899     31653.16   -1228.7866     376.2248   -852.56184   -1461.1435    805.75657   -1228.7866            0            0            0            0            0   -573.39969   -26.558581 
 1005000    353.90625     933.0558    843.90837    30740.243   -1265.3359    420.91599   -844.41986   -1493.3732    801.40639   -1265.3359            0            0            0            0            0   -573.36908   -27.347312 
 1010000    361.42273    -266.4381    819.17333    31668.449   -1240.8204    429.85567   -810.96477    -1467.582    800.47263   -1240.8204            0            0            0            0            0   -573.71108    -26.54576 
 1015000    345.07779     429.0246    827.15292    31362.942   -1228.2089    410.41593   -817.79293   -1455.1569    800.62209   -1228.2089            0            0            0            0            0   -573.67407   -26.804343 
 1020000    292.77068   -535.45219    794.45352    32653.828   -1182.2846    348.20482   -834.07974   -1414.5494    805.77523   -1182.2846            0            0            0            0            0   -573.51037   -25.744701 
 1025000    370.11018   -204.01021    829.52622    31273.211   -1272.4159    440.18803   -832.22785    -1497.477    798.77643   -1272.4159            0            0            0            0            0   -573.71528   -26.881251 
 1030000     332.8851   -169.97948    802.20239    32338.408   -1197.7777    395.91463   -801.86307   -1428.8972    804.84531   -1197.7777            0            0            0            0            0   -573.72579   -25.995807 
 1035000     335.1226    294.66024    828.79568    31300.777   -1240.9924    398.57579   -842.41663   -1463.6349     796.0257   -1240.9924            0            0            0            0            0   -573.38322   -26.857577 
 1040000     311.4745    342.01864    843.47869    30755.903   -1281.9699    370.45008   -911.51982   -1516.0951    807.78228   -1281.9699            0            0            0            0            0   -573.65713   -27.333388 
 1045000    322.92556   -300.94875    808.92577    32069.628   -1207.5469    384.06932   -823.47755   -1442.2936    808.22371   -1207.5469            0            0            0            0            0   -573.47696   -26.213682 
 1050000    328.73151   -56.914735    803.99474    32266.316   -1187.0366    390.97459     -796.062   -1424.6522    811.04852   -1187.0366            0            0            0            0            0    -573.4329   -26.053889 
 1055000    351.25037    642.54483    813.14993    31903.032   -1193.4443    417.75724   -775.68705   -1429.7316    809.85428   -1193.4443            0            0            0            0            0     -573.567   -26.350568 
 1060000    352.25208    14.899189    821.76604    31568.533   -1235.2318    418.94862   -816.28314   -1462.9515     801.1672   -1235.2318            0            0            0            0            0   -573.44747   -26.629778 
 1065000    333.86442    103.90824    821.57699    31575.797   -1213.2819    397.07938   -816.20248   -1452.0805    812.41612   -1213.2819            0            0            0            0            0   -573.61748   -26.623652 
 1070000     337.5535    208.71592    823.18803    31514.001   -1230.5844    401.46696   -829.11741   -1470.2945     813.2672   -1230.5844            0            0            0            0            0   -573.55711   -26.675858 
 1075000    314.71239   -168.57692    820.37808    31621.943   -1237.5477    374.30104   -863.24665   -1468.4373    804.33029   -1237.5477            0            0            0            0            0   -573.44072     -26.5848 
 1080000    320.14634   -81.952665    822.45201    31542.204    -1233.843    380.76388   -853.07916   -1475.4769    815.36762    -1233.843            0            0            0            0            0   -573.73379   -26.652007 
 1085000    329.72903   -268.59313     835.1702    31061.871   -1269.1951    392.16098   -877.03411   -1506.9254    811.27857   -1269.1951            0            0            0            0            0   -573.54824   -27.064147 
 1090000    325.72536   -238.55881    829.68816    31267.107   -1263.7188    387.39924   -876.31957   -1492.0977    801.90592   -1263.7188            0            0            0            0            0   -573.52701   -26.886499 
 1095000    334.80714    31.099645    808.16634    32099.764   -1200.9714     398.2006   -802.77077   -1432.2335    804.80075   -1200.9714            0            0            0            0            0   -573.53863   -26.189072 
 1100000    345.50402   -261.19091    811.60662    31963.698    -1220.013    410.92286   -809.09019   -1454.2492    807.79892    -1220.013            0            0            0            0            0   -573.56276   -26.300556 
 1105000    324.85055     234.0149    830.94921    31219.656   -1251.0614     386.3588   -864.70264    -1486.159    808.62651   -1251.0614            0            0            0            0            0   -573.52896   -26.927364 
 1110000    322.85978   -45.506208    806.29675    32174.195   -1200.8874    383.99109   -816.89636   -1431.5008    804.25317   -1200.8874            0            0            0            0            0   -573.63986   -26.128487 
 1115000    333.15817    413.69298    838.31212    30945.453   -1267.5206     396.2394   -871.28121   -1491.9084    798.00519   -1267.5206            0            0            0            0            0   -573.61743   -27.165963 
 1120000    341.19956    -288.2796    820.92958    31600.699   -1239.3769    405.80338   -833.57352   -1474.6729    808.89078   -1239.3769            0            0            0            0            0   -573.59482   -26.602672 
 1125000    306.25546   -56.729013    807.83838    32112.795   -1200.2345    364.24285   -835.99165   -1437.5041    810.81079   -1200.2345            0            0            0            0            0   -573.54121   -26.178444 
 1130000    356.22881   -184.65759    820.03302    31635.249   -1249.9442    423.67832   -826.26585   -1471.4454    795.01075   -1249.9442            0            0            0            0            0   -573.50955   -26.573618 
 1135000    326.80542   -170.32465    801.60877    32362.356   -1190.4795     388.6838   -801.79571   -1426.5492    809.75196   -1190.4795            0            0            0            0            0   -573.68231   -25.976571 
 1140000    339.73198    8.8556683    832.37886    31166.035   -1259.9446    404.05792   -855.88666   -1490.0509    803.75592   -1259.9446            0            0            0            0            0   -573.64958   -26.973692 
 1145000    314.84333   -181.75326      820.428    31620.019    -1237.212    374.45678    -862.7552   -1473.1365     809.7009    -1237.212            0            0            0            0            0   -573.77638   -26.586418 
 1150000    336.38881    105.16746    807.75177    32116.239   -1191.5079    400.08175   -791.42616   -1431.5934     813.7874   -1191.5079            0            0            0            0            0    -573.7019   -26.175638 
 1155000    340.76113    23.025286     808.6578    32080.255   -1203.9001    405.28193   -798.61815   -1433.4764    803.22387   -1203.9001            0            0            0            0            0   -573.64755   -26.204998 
 1160000    344.27588   -252.23683    815.92175    31794.653   -1225.2862    409.46218   -815.82398   -1463.0075    811.15801   -1225.2862            0            0            0            0            0   -573.43664    -26.44039 
 1165000    341.03474   -128.06318    814.74246    31840.674    -1229.892    405.60735    -824.2846   -1461.1531    804.79722    -1229.892            0            0            0            0            0   -573.53603   -26.402175 
 1170000    324.62233   -87.006878    818.29259    31702.534   -1236.6758    386.08736    -850.5884   -1465.9008     802.8147   -1236.6758            0            0            0            0            0   -573.58968   -26.517219 
 1175000    324.95216    572.21835     825.1133    31440.468   -1231.0663    386.47964   -844.58669   -1455.3423    797.89995   -1231.0663            0            0            0            0            0   -573.62393   -26.738248 
 1180000    330.40155     59.49225    822.69508    31532.884   -1235.4998    392.96084   -842.53898   -1467.8071    805.80662   -1235.4998            0            0            0            0            0   -573.49932   -26.659884 
 1185000    318.71483   -77.414246    820.15791    31630.432   -1233.7615    379.06131   -854.70022   -1469.4925    809.09757   -1233.7615            0            0            0            0            0   -573.36663   -26.577666 
 1190000     367.4773    1.0547105     819.1042    31671.122   -1234.5144    437.05663   -797.45776   -1464.1953    803.09482   -1234.5144            0            0            0            0            0   -573.41394   -26.543519 
 1195000    331.36553   -18.571229    815.06932    31827.905   -1201.8102    394.10734   -807.70285   -1442.4859    814.03135   -1201.8102            0            0            0            0            0   -573.35564   -26.412767 
 1200000    350.85857   -399.65922    793.96333    32673.988   -1183.9657    417.29126   -766.67446   -1417.6937     807.2649   -1183.9657            0            0            0            0            0    -573.5369   -25.728816 
 1205000    318.46438   -333.12215    808.54309    32084.807   -1202.1094    378.76345   -823.34595   -1438.9682    810.32912   -1202.1094            0            0            0            0            0    -573.4703   -26.201281 
 1210000     323.5953   -197.83716     804.7611     32235.59     -1210.24    384.86587    -825.3741   -1435.7732    799.10077     -1210.24            0            0            0            0            0   -573.56757   -26.078724 
 1215000    307.19913     329.5092    826.78094    31377.052   -1246.2279     365.3652   -880.86267   -1471.8082    799.15325   -1246.2279            0            0            0            0            0    -573.5729   -26.792288 
 1220000    355.92123    15.749248    832.68329    31154.641   -1277.7613     423.3125   -854.44883   -1504.9647    800.51789   -1277.7613            0            0            0            0            0   -573.31452   -26.983557 
 1225000     348.8692   -135.01228    824.85112    31450.462   -1246.9296    414.92522   -832.00442   -1477.8211    804.47605   -1246.9296            0            0            0            0            0   -573.58462   -26.729752 
 1230000    362.27497    558.82264    826.20834    31398.798   -1220.6662    430.86927   -789.79695    -1456.277    809.34442   -1220.6662            0            0            0            0            0   -573.73367   -26.773733 
 1235000    344.90423     348.8991    822.80462    31528.686    -1223.752    410.20951    -813.5425   -1459.0278    808.81759    -1223.752            0            0            0            0            0    -573.5418   -26.663434 
 1240000    332.26111   -82.476475    810.87971    31992.352   -1210.6674    395.17249   -815.49486   -1443.4412     806.5511   -1210.6674            0            0            0            0            0    -573.7773      -26.277 
 1245000    358.53688   -160.73166    838.20384    30949.451   -1284.8612     426.4234   -858.43784   -1515.1217    804.03219   -1284.8612            0            0            0            0            0   -573.77177   -27.162454 
 1250000    350.27534   -435.95808    820.91462    31601.275   -1245.1279     416.5976   -828.53033   -1472.7897    801.41593   -1245.1279            0            0            0            0            0   -573.75415   -26.602187 
 1255000     333.3909    201.27132    829.68991    31267.041   -1248.7343     396.5162   -852.21813   -1480.2508    804.86576   -1248.7343            0            0            0            0            0   -573.34933   -26.886555 
 1260000    334.12225   -642.30282    812.79366    31917.016   -1229.1746    397.38603   -831.78857   -1462.8679    807.24565   -1229.1746            0            0            0            0            0   -573.55232   -26.339023 
 1265000    332.30226    154.48299    823.74201    31492.808   -1241.9893    395.22144   -846.76787   -1475.9983    807.45981   -1241.9893            0            0            0            0            0   -573.45079    -26.69381 
 1270000    331.60224    223.79295    820.94344    31600.166   -1234.2937    394.38887   -839.90486   -1470.9152    810.25065   -1234.2937            0            0            0            0            0   -573.62923   -26.603121 
 1275000    358.92215   -85.433983    820.78846    31606.132   -1240.0062    426.88162   -813.12457   -1470.6127    804.08892   -1240.0062            0            0            0            0            0   -573.48237   -26.598099 
 1280000    347.37003   -91.395756    809.05932    32064.334   -1203.7944    413.14218   -790.65226   -1440.9731    810.45533   -1203.7944            0            0            0            0            0   -573.27671    -26.21801 
 1285000    346.79512    416.50405    813.83977     31875.99   -1203.9564    412.45843   -791.49802   -1437.8491    807.19034   -1203.9564            0            0            0            0            0    -573.2977   -26.372923 
 1290000    339.42201    145.91405     831.3657    31204.016   -1247.2094    403.68927   -843.52012   -1481.4547    807.80387   -1247.2094            0            0            0            0            0   -573.55854    -26.94086 
 1295000    320.67079   -240.54774     833.2917    31131.894   -1264.6015    381.38763   -883.21389   -1500.1415    809.27627   -1264.6015            0            0            0            0            0   -573.73629   -27.003273 
 1300000    337.03904   -167.45785    814.37391    31855.083   -1226.1318    400.85509   -825.27674    -1454.336    801.75875   -1226.1318            0            0            0            0            0   -573.55454   -26.390232 
 1305000    330.78591     145.1373    821.49096    31579.104   -1221.6587    393.41797   -828.24068   -1455.6254    807.57536   -1221.6587            0            0            0            0            0   -573.60861   -26.620864 
 1310000    301.92795    323.32198     813.7425      31879.8   -1202.0763    359.09596   -842.98038   -1433.3201    805.00949   -1202.0763            0            0            0            0            0   -573.76571   -26.369771 
 1315000    321.96658   -92.301677    812.97997    31909.702   -1211.0754    382.92877    -828.1466   -1440.4247    803.01704   -1211.0754            0            0            0            0            0   -573.66769   -26.345061 
 1320000     350.2802   -212.58491    836.45401    31014.196   -1279.6971    416.60338    -863.0937   -1511.4848    805.21822   -1279.6971            0            0            0            0            0   -573.43046    -27.10575 
 1325000    333.40259   -8.1191481    823.43526    31504.539   -1245.8414     396.5301   -849.31128   -1477.1238    804.82436   -1245.8414            0            0            0            0            0   -573.54197    -26.68387 
 1330000    330.63397    254.45665    832.56204    31159.178   -1239.2151    393.23727   -845.97781   -1472.1216    806.38016   -1239.2151            0            0            0            0            0   -573.47362   -26.979628 
 1335000    315.35914   -615.32693    790.33315    32824.068   -1182.1831    375.07026   -807.11283   -1420.2621    811.84135   -1182.1831            0            0            0            0            0   -573.76232   -25.611178 
 1340000    333.21215    954.80238    814.20338    31861.755   -1177.9416    396.30361   -781.63803   -1414.0514    809.77585   -1177.9416            0            0            0            0            0   -573.66605   -26.384706 
 1345000    324.58528    -274.4833    818.68131    31687.481    -1239.452     386.0433   -853.40871   -1470.8145    804.93932    -1239.452            0            0            0            0            0   -573.57682   -26.529816 
 1350000    318.77415   -19.584263    817.73828    31724.024   -1217.3721    379.13187   -838.24021   -1448.3854    804.52467   -1217.3721            0            0            0            0            0   -573.51135   -26.499256 
 1355000     322.9916   -274.80655    797.27292    32538.354   -1183.3807    384.14787   -799.23286   -1417.3886    807.74911   -1183.3807            0            0            0            0            0   -573.74123   -25.836065 
 1360000    335.64065   -141.80619    817.23989     31743.37   -1220.1662    399.19193   -820.97432   -1453.6153    806.97317   -1220.1662            0            0            0            0            0   -573.52411   -26.483106 
 1365000    339.13723    153.69756     812.4424    31930.816   -1194.8596    403.35056   -791.50904   -1432.9037    811.40381   -1194.8596            0            0            0            0            0   -573.35968    -26.32764 
 1370000    348.91329    876.82822    845.02169    30699.743   -1262.6404    414.97765   -847.66277   -1491.2649    802.25242   -1262.6404            0            0            0            0            0   -573.62792    -27.38339 
 1375000    313.65033   -154.76902    822.29107    31548.377   -1243.9469    373.03789   -870.90896   -1467.4398    797.42114   -1243.9469            0            0            0            0            0   -573.92822   -26.646792 
 1380000    350.94661    183.03434    828.21482    31322.729   -1239.4653    417.39597   -822.06929   -1475.5218    809.85581   -1239.4653            0            0            0            0            0   -573.79927   -26.838754 
 1385000      334.807   -121.24988    823.21674    31512.902   -1248.2401    398.20044   -850.03969   -1482.2579    807.57467   -1248.2401            0            0            0            0            0   -573.55688   -26.676789 
 1390000    349.12185   -66.421599    820.91316    31601.331   -1234.7546    415.22571   -819.52886   -1466.0451     804.6407   -1234.7546            0            0            0            0            0   -573.35014    -26.60214 
 1395000    330.31386   -176.19017    816.38907    31776.453   -1225.4042    392.85655   -832.54764   -1457.5451    805.79162   -1225.4042            0            0            0            0            0   -573.65075   -26.455534 
 1400000    341.83656    93.371778    815.35544    31816.736    -1222.788    406.56099   -816.22703   -1458.6106    809.40499    -1222.788            0            0            0            0            0   -573.58245   -26.422039 
 1405000    354.57288   -71.920859    807.85102    32112.293   -1209.8078    421.70885   -788.09898   -1440.5068    804.31383   -1209.8078            0            0            0            0            0    -573.6149   -26.178854 
 1410000     320.9226    114.25171    822.26139    31549.516   -1238.4332    381.68711   -856.74612   -1464.1739    799.27795   -1238.4332            0            0            0            0            0   -573.53731    -26.64583 
 1415000    334.35486    239.71515    820.90144    31601.782   -1209.7938    397.66268   -812.13107   -1448.0823    811.99214   -1209.7938            0            0            0            0            0    -573.7036    -26.60176 
 1420000    335.05231   -325.94204    795.36653    32616.344    -1188.396    398.49218   -789.90379   -1414.9647    799.82578    -1188.396            0            0            0            0            0   -573.25709   -25.774288 
 1425000    311.85046    744.25907    833.37301    31128.856   -1235.8028    370.89723   -864.90559   -1464.8906    802.54668   -1235.8028            0            0            0            0            0   -573.45887   -27.005908 
 1430000    324.10192   -201.22608    819.62333    31651.062   -1235.4855    385.46842   -850.01713   -1463.0684    800.74479   -1235.4855            0            0            0            0            0   -573.16192   -26.560342 
 1435000    325.71111    122.79419    851.65037    30460.796    -1307.805     387.3823   -920.42271   -1536.2962    802.32081    -1307.805            0            0            0            0            0    -573.8296   -27.598196 
 1440000      335.512    192.66146    809.86615     32032.39   -1186.4497    399.03892   -787.41079   -1419.7555    806.75408   -1186.4497            0            0            0            0            0   -573.44832   -26.244156 
 1445000    341.70364    27.460729     814.8463    31836.616   -1232.3501     406.4029   -825.94724   -1460.5187     801.5838   -1232.3501            0            0            0            0            0   -573.41527    -26.40554 
 1450000    320.19465   -712.59451    807.18769    32138.682   -1221.3184    380.82134   -840.49709    -1454.527    806.74451   -1221.3184            0            0            0            0            0   -573.53589   -26.157358 
 1455000    311.37336   -222.18584    807.89087    32110.709   -1201.9934    370.32979   -831.66358      -1435.6    807.34986   -1201.9934            0            0            0            0            0   -573.74326   -26.180145 
 1460000    352.85819    225.46692    817.97341    31714.905   -1222.8667    419.66949   -803.19724    -1451.663    802.00239   -1222.8667            0            0            0            0            0   -573.20611   -26.506876 
 1465000    327.67938   -29.258881    816.30211    31779.838   -1229.3083    389.72324   -839.58504   -1457.8412    802.16919   -1229.3083            0            0            0            0            0   -573.63624   -26.452716 
 1470000    340.24661    258.90195    830.21821    31247.145   -1248.9748    404.66999   -844.30479   -1477.7113    802.28191   -1248.9748            0            0            0            0            0   -573.54537   -26.903675 
 1475000    343.94512    38.679857    821.78944    31567.634   -1240.2332    409.06879   -831.16438   -1467.6621    800.80967   -1240.2332            0            0            0            0            0   -573.38074   -26.630536 
 1480000    340.34335   -32.929563    828.20032    31323.278   -1261.2189    404.78505   -856.43389   -1486.5309    798.71745   -1261.2189            0            0            0            0            0   -573.40546   -26.838284 
 1485000    342.20623    45.441748    821.98586    31560.091   -1227.7174    407.00066   -820.71671   -1462.3448    808.36422   -1227.7174            0            0            0            0            0   -573.73677   -26.636901 
 1490000    357.25622   -93.523734    809.23565    32057.348   -1221.8632    424.90026   -796.96299   -1450.1247    801.94124   -1221.8632            0            0            0            0            0   -573.67977   -26.223724 
 1495000    334.95154    139.42474    833.72243     31115.81   -1249.3732    398.37234   -851.00089   -1491.1321    815.19605   -1249.3732            0            0            0            0            0   -573.43717   -27.017231 
 1500000    319.75599   -96.453688    808.34408    32092.706   -1213.0494    380.29962   -832.74977   -1442.6245    803.06937   -1213.0494            0            0            0            0            0   -573.49424   -26.194832 
 1505000    327.54434   -343.43297    801.40818    32370.456   -1191.4731    389.56264   -801.91048   -1422.1706    804.36445   -1191.4731            0            0            0            0            0   -573.66699    -25.97007 
 1510000    338.99204   -7.6433769    827.31692    31356.724   -1249.7936    403.17788   -846.61575   -1476.9984    800.85069   -1249.7936            0            0            0            0            0   -573.64589   -26.809657 
 1515000    334.50441    553.12945    835.04017    31066.707   -1248.3557    397.84055   -850.51519   -1483.9317    809.29755   -1248.3557            0            0            0            0            0   -573.72163   -27.059933 
 1520000    318.26562   -236.18024    834.70348    31079.238   -1285.1788    378.52705   -906.65174   -1510.9818    799.22498   -1285.1788            0            0            0            0            0   -573.42199   -27.049023 
 1525000    318.68245     275.0985    818.64348    31688.945   -1221.3015    379.02281   -842.27874   -1448.5279    800.88614   -1221.3015            0            0            0            0            0    -573.6598    -26.52859 
 1530000    344.93963    334.42269    834.05843    31103.275   -1261.8735    410.25161    -851.6219   -1488.8458    800.68112   -1261.8735            0            0            0            0            0   -573.70882    -27.02812 
 1535000    333.38033    53.602878    816.45748     31773.79   -1227.6635    396.50363   -831.15991   -1450.9197    796.69911   -1227.6635            0            0            0            0            0     -573.443   -26.457751 
 1540000     341.3247    465.55022    823.72565    31493.433   -1224.0372    405.95221   -818.08501   -1454.7887    804.21621   -1224.0372            0            0            0            0            0   -573.46472    -26.69328 
 1545000    331.03889    4.7566334    817.53738     31731.82   -1237.1825    393.71885   -843.46366   -1464.3804    800.71961   -1237.1825            0            0            0            0            0   -573.52176   -26.492746 
 1550000    337.54598    153.65484     812.0273    31947.138   -1204.0712    401.45801   -802.61321   -1439.9579    809.48936   -1204.0712            0            0            0            0            0   -573.60272   -26.314189 
 1555000    347.97333    364.20833    812.44815     31930.59   -1193.6057    413.85972   -779.74597   -1432.4063    812.20283   -1193.6057            0            0            0            0            0   -573.40221   -26.327827 
 1560000    337.14148   -4.9400717    842.29409    30799.158   -1285.6502    400.97693   -884.67323   -1511.5768    799.40248   -1285.6502            0            0            0            0            0   -573.47588   -27.295001 
 1565000    322.46311   -69.358491    829.04219     31291.47   -1254.7813    383.51931   -871.26198   -1495.2709    813.94697   -1254.7813            0            0            0            0            0   -573.45734   -26.865566 
 1570000    342.20113   -197.25751    821.89172    31563.706   -1251.5968    406.99459   -844.60225   -1487.5798    809.57957   -1251.5968            0            0            0            0            0   -573.59659   -26.633851 
 1575000    330.96627    153.43512    829.93635    31257.757   -1263.1867    393.63248   -869.55421   -1485.3873     795.6728   -1263.1867            0            0            0            0            0   -573.47218   -26.894541 
 1580000    332.52193    338.79296    817.40825    31736.833   -1208.4311     395.4827   -812.94837   -1452.6064    817.70345   -1208.4311            0            0            0            0            0   -573.52809   -26.488561 
 1585000    339.36551   -122.63872    812.46867    31929.783   -1202.3116    403.62206   -798.68952   -1439.5243    810.92142   -1202.3116            0            0            0            0            0   -573.70866   -26.328492 
 1590000    326.62176    153.07314    811.54573    31966.096   -1190.7027    388.46538   -802.23731    -1429.441    812.12784   -1190.7027            0            0            0            0            0    -573.3895   -26.298583 
 1595000    336.75192   -56.161731    819.51225    31655.352   -1236.6597    400.51361   -836.14608   -1473.9331    810.78126   -1236.6597            0            0            0            0            0   -573.50788   -26.556743 
[...]
 4600000    323.42321    46.219914    824.36208    31469.119   -1235.0914     384.6612   -850.43018    -1469.832    808.39789   -1235.0914            0            0            0            0            0   -573.65728   -26.713904 
 4605000    330.13438   -76.868841    824.64576    31458.294   -1261.3106    392.64309   -868.66755   -1489.2416    801.41002   -1261.3106            0            0            0            0            0   -573.47909   -26.723097 
 4610000    320.83675   -297.29814    820.57126    31614.498   -1249.2875    381.58501   -867.70247   -1474.0961    798.16455   -1249.2875            0            0            0            0            0   -573.35595    -26.59106 
 4615000    328.97251   -201.60272    822.46608    31541.664    -1233.896    391.26122   -842.63479   -1470.0351    809.92693    -1233.896            0            0            0            0            0   -573.78786   -26.652463 
 4620000    335.85992    115.13052    833.92853     31108.12   -1267.0966    399.45272   -867.64391   -1492.8991    799.30532   -1267.0966            0            0            0            0            0   -573.50287    -27.02391 
 4625000    333.80592   -19.745778    805.98135    32186.785   -1189.7831     397.0098   -792.77332   -1425.9207    809.61382   -1189.7831            0            0            0            0            0   -573.47619   -26.118266 
 4630000    339.11326   -646.08853     813.5469    31887.466   -1220.9291    403.32206   -817.60703    -1453.638    806.05523   -1220.9291            0            0            0            0            0   -573.34629   -26.363432 
 4635000    345.99718    212.98801    845.93743     30666.51   -1287.4409    411.50939   -875.93154   -1520.6835    806.54072   -1287.4409            0            0            0            0            0   -573.29816   -27.413065 
 4640000    320.86429   -283.16547    800.78308    32395.725   -1203.5939    381.61776   -821.97616   -1440.5792    810.50922   -1203.5939            0            0            0            0            0   -573.52389   -25.949814 
 4645000    322.67858    393.69752    831.83376    31186.458   -1253.1495    383.77558   -869.37396   -1480.1066    800.30023   -1253.1495            0            0            0            0            0    -573.3432   -26.956028 
 4650000    335.64403   -74.796589    807.31067    32133.786   -1217.4149    399.19595   -818.21891   -1447.8331    803.90174   -1217.4149            0            0            0            0            0   -573.48353   -26.161344 
 4655000    325.53523   -306.99176    811.97233    31949.301   -1235.8372    387.17312   -848.66411   -1459.2768    797.06319   -1235.8372            0            0            0            0            0   -573.62364   -26.312407 
 4660000    337.25803   -426.97907     811.3435    31974.063   -1221.8473    401.11554    -820.7318   -1459.1186    810.76286   -1221.8473            0            0            0            0            0   -573.49158    -26.29203 
 4665000    357.25004   -370.75497    802.89396    32310.554   -1208.2089    424.89291   -783.31597   -1441.2042    806.69128   -1208.2089            0            0            0            0            0     -573.696   -26.018218 
 4670000    359.39502   -126.44122    816.46896    31773.343   -1226.2279    427.44403   -798.78386   -1463.5629    811.11691   -1226.2279            0            0            0            0            0   -573.78193   -26.458123 
 4675000    325.12191   -343.32334    807.81708    32113.642   -1216.2048    386.68154   -829.52326   -1445.0406    802.61166   -1216.2048            0            0            0            0            0   -573.77582   -26.177754 
 4680000    340.02845    170.18899    821.09102    31594.486   -1221.8015    404.41052   -817.39098   -1449.2927    801.28532   -1221.8015            0            0            0            0            0   -573.79412   -26.607904 
 4685000     313.4433    97.448483    822.08055    31556.456    -1228.117    372.79166   -855.32538   -1458.7835    804.46029    -1228.117            0            0            0            0            0   -573.79382    -26.63997 
 4690000    331.87148    127.36577    817.30667    31740.777   -1215.8277    394.70909   -821.11858   -1451.0921     809.0692   -1215.8277            0            0            0            0            0   -573.80475   -26.485269 
 4695000    299.84616    123.82522      820.788     31606.15   -1225.7252    356.61999   -869.10519   -1459.5332    807.32935   -1225.7252            0            0            0            0            0   -573.52137   -26.598084 
 4700000     317.1786   -235.68678    806.09468     32182.26   -1214.9319    377.23421    -837.6977   -1447.6144    806.05746   -1214.9319            0            0            0            0            0   -573.37495   -26.121939 
 4705000     315.7545    592.46208     847.7489    30600.982   -1278.9609    375.54047   -903.42046     -1511.23     805.8234   -1278.9609            0            0            0            0            0   -573.55429   -27.471767 
 4710000    342.09843    242.67568    826.99382    31368.975   -1241.0246    406.87244   -834.15214   -1463.5933    796.08862   -1241.0246            0            0            0            0            0   -573.51994   -26.799187 
 4715000    329.45692    -301.5627    813.71057    31881.051   -1234.2672    391.83735   -842.42985   -1464.6929    804.14868   -1234.2672            0            0            0            0            0   -573.72296   -26.368736 
 4720000    312.89324    358.81941    810.68714    31999.951   -1199.9637    372.13745   -827.82629   -1429.4015    803.14443   -1199.9637            0            0            0            0            0   -573.70665    -26.27076 
 4725000    330.92605   -99.892462    827.11304    31364.454   -1257.4534    393.58465   -863.86873   -1483.1188    799.03874   -1257.4534            0            0            0            0            0   -573.37329   -26.803051 
 4730000    337.64363    17.144477    824.84107    31450.845   -1245.7713    401.57416   -844.19713   -1475.4286    803.22729   -1245.7713            0            0            0            0            0   -573.56999   -26.729426 
 4735000    348.50401   -773.05139    816.27201     31781.01   -1252.2051    414.49088   -837.71419   -1479.3168    800.62783   -1252.2051            0            0            0            0            0   -573.51607   -26.451741 
 4740000     362.6035     75.11942    822.32184    31547.196   -1245.9705    431.26001   -814.71052    -1484.279     811.7394   -1245.9705            0            0            0            0            0   -573.43094   -26.647789 
 4745000    329.58939    467.03495    852.44228    30432.499    -1296.865    391.99491   -904.87005   -1528.7641      805.698    -1296.865            0            0            0            0            0   -573.79881   -27.623858 
 4750000    330.04699    102.16974    817.38844    31737.602   -1211.7426    392.53915   -819.20345   -1444.6356    806.42671   -1211.7426            0            0            0            0            0   -573.53373   -26.487919 
 4755000    327.38909    9.6884426    830.76276    31226.663    -1258.564    389.37799   -869.18597   -1493.4272     808.5627    -1258.564            0            0            0            0            0   -573.69943   -26.921321 
 4760000    336.17836    377.81801    827.61187    31345.549   -1226.9076    399.83145   -827.07612   -1462.9461    809.64573   -1226.9076            0            0            0            0            0   -573.60715   -26.819215 
 4765000    336.37442    188.13449    828.55397    31309.908   -1261.9837    400.06463   -861.91903    -1487.351    798.88758   -1261.9837            0            0            0            0            0   -573.52029   -26.849744 
 4770000    336.74575    129.84487    815.81907    31798.654   -1219.3913    400.50628   -818.88499    -1454.682    808.56093   -1219.3913            0            0            0            0            0   -573.27024   -26.437063 
 4775000    332.53251   -312.64105    813.45061     31891.24   -1220.7308    395.49528   -825.23552    -1453.506    806.56198   -1220.7308            0            0            0            0            0   -573.78682   -26.360312 
 4780000    346.33632    31.270057     825.8874        31411    -1244.911    411.91275   -832.99823   -1475.4908    803.78972    -1244.911            0            0            0            0            0   -573.20988   -26.763333 
 4785000    315.77382   -161.10076    814.18314    31862.547   -1219.0813    375.56344   -843.51789   -1451.1707    805.80692   -1219.0813            0            0            0            0            0   -573.71755    -26.38405 
 4790000    341.28817    181.05281    827.61809    31345.314   -1235.2738    405.90876   -829.36507   -1467.2725    805.59506   -1235.2738            0            0            0            0            0   -573.59639   -26.819417 
 4795000    313.88706   -386.87739    805.49785    32206.106   -1208.4942    373.31944   -835.17475   -1443.6605    808.72529   -1208.4942            0            0            0            0            0     -573.559   -26.102598 
 4800000    331.41112    329.71993    795.55354    32608.677   -1162.5529    394.16156   -768.39139   -1393.9732    805.07399   -1162.5529            0            0            0            0            0   -573.65377   -25.780348 
 4805000    335.27103   -36.148391    817.97748    31714.747   -1215.8098    398.75232   -817.05746   -1450.0299    807.81375   -1215.8098            0            0            0            0            0   -573.59366   -26.507008 
 4810000     338.6299   -162.34603    809.19925     32058.79   -1219.9975    402.74718   -817.25031   -1451.5478    805.18866   -1219.9975            0            0            0            0            0   -573.63831   -26.222544 
 4815000    315.74121     -298.879    813.36499    31894.597   -1222.0746    375.52466   -846.54995   -1453.7711    805.02188   -1222.0746            0            0            0            0            0   -573.32542   -26.357537 
 4820000    314.26607   -274.24564    814.68189    31843.041   -1214.4993    373.77022    -840.7291   -1443.9413    803.03728   -1214.4993            0            0            0            0            0   -573.59531   -26.400212 
 4825000    344.05715    337.12365    826.47921    31388.507   -1231.6594    409.20203   -822.45741   -1464.8661    806.57163   -1231.6594            0            0            0            0            0   -573.36494   -26.782511 
 4830000    331.43245    562.76325    817.52624    31732.252   -1200.6149    394.18693   -806.42797   -1426.1884    799.35055   -1200.6149            0            0            0            0            0   -573.77701   -26.492385 
 4835000    348.92219    1.3613588    822.06974    31556.871   -1247.3091    414.98824   -832.32088   -1472.6648    799.08453   -1247.3091            0            0            0            0            0   -573.72882   -26.639619 
 4840000    357.03775   -898.70168    806.79119    32154.477   -1232.0419    424.64042   -807.40143   -1462.9717    804.59572   -1232.0419            0            0            0            0            0   -573.66587    -26.14451 
 4845000    344.15792   -192.69339    824.67513    31457.174   -1245.8788    409.32188    -836.5569   -1484.0518    811.83787   -1245.8788            0            0            0            0            0   -573.66485   -26.724048 
 4850000    341.67482    442.89526    823.34524    31507.984   -1223.5342    406.36863   -817.16556   -1456.8462    806.93069   -1223.5342            0            0            0            0            0   -573.61867   -26.680953 
 4855000    329.67618   -228.15726    810.64998    32001.418   -1212.4632    392.09812   -820.36513   -1447.6382     808.7326   -1212.4632            0            0            0            0            0   -573.55763   -26.269556 
 4860000    323.07961    -91.36648    830.58586    31233.314   -1267.5023    384.25254   -883.24978   -1493.6981    800.04777   -1267.5023            0            0            0            0            0   -573.85199   -26.915589 
 4865000    334.74329   -130.22108       823.49    31502.445   -1252.9243    398.12465   -854.79961   -1478.9938    799.46963   -1252.9243            0            0            0            0            0   -573.40007   -26.685644 
 4870000    363.73606   -579.76128    826.21572    31398.517   -1278.3023    432.60701   -845.69532    -1508.769    804.22036   -1278.3023            0            0            0            0            0    -573.7537   -26.773972 
 4875000    322.98777    448.87824     832.0682    31177.671   -1255.5006    384.14331   -871.35725   -1477.1763    795.36716   -1255.5006            0            0            0            0            0   -573.69146   -26.963625 
 4880000     328.4766    446.98449    844.16552    30730.879   -1274.9782    390.67142   -884.30681   -1508.7465    807.30963   -1274.9782            0            0            0            0            0   -573.54137   -27.355645 
 4885000    337.15959    96.358866    845.85732    30669.415   -1290.6614    400.99847   -889.66294   -1518.9358    801.76352   -1290.6614            0            0            0            0            0   -573.48914   -27.410469 
 4890000    338.87029    210.14395    819.83494    31642.892   -1226.1594    403.03308   -823.12634    -1463.002    810.39136   -1226.1594            0            0            0            0            0   -573.54878     -26.5672 
 4895000    313.37756   -103.33973     823.2246    31512.601    -1245.539    372.71348   -872.82553   -1474.7078    802.96307    -1245.539            0            0            0            0            0   -573.79431   -26.677043 
 4900000    337.11577    149.39138    813.29293    31897.423   -1210.6496    400.94635   -809.70328    -1440.373    803.37305   -1210.6496            0            0            0            0            0   -573.64966   -26.355202 
 4905000    341.94754    105.81612    816.64689    31766.421   -1217.1038    406.69298   -810.41079   -1443.0682    799.69167   -1217.1038            0            0            0            0            0   -573.72728   -26.463889 
 4910000    328.32426   -25.605257     820.8108    31605.272   -1232.2138    390.49023   -841.72359   -1467.0165    808.03092   -1232.2138            0            0            0            0            0   -573.22819   -26.598823 
 4915000    324.75249    9.9029877    831.06929    31215.145   -1248.3786    386.24217   -862.13643   -1483.0076    808.21132   -1248.3786            0            0            0            0            0   -573.58227   -26.931255 
 4920000    355.67716    198.31223     835.3947    31053.523   -1259.7281    423.02222   -836.70592   -1484.2425    798.07916   -1259.7281            0            0            0            0            0    -573.5648   -27.071422 
 4925000    332.45733   -151.71711    824.75874    31453.985   -1251.6232    395.40586   -856.21735   -1474.3118    796.49904   -1251.6232            0            0            0            0            0   -573.81047   -26.726758 
 4930000     326.7569   -31.893963    831.96143    31181.672   -1257.2422    388.62609   -868.61613   -1487.6194    804.06552   -1257.2422            0            0            0            0            0   -573.68836   -26.960165 
 4935000    323.22419    -241.7866    814.58849    31846.692   -1209.4475     384.4245   -825.02299   -1450.1425    814.22102   -1209.4475            0            0            0            0            0   -573.52596   -26.397186 
 4940000    325.17091    313.34573    826.83845     31374.87   -1246.3894    386.73982   -859.64954   -1476.3153    803.43584   -1246.3894            0            0            0            0            0   -573.50991   -26.794152 
 4945000      338.646    -136.7536    813.34614    31895.336   -1210.9782    402.76632   -808.21186   -1447.7171     810.2521   -1210.9782            0            0            0            0            0   -573.51321   -26.356927 
 4950000    350.60268   -17.795874    804.13734    32260.595   -1209.9057    416.98691   -792.91879   -1432.1037    795.74842   -1209.9057            0            0            0            0            0   -573.55038    -26.05851 
 4955000    341.48359    2.2908209    813.15446    31902.855   -1218.6493    406.14119   -812.50807   -1446.1228    801.17282   -1218.6493            0            0            0            0            0   -573.69925   -26.350715 
 4960000    338.56374   -396.67446    798.92051    32471.251   -1188.1218    402.66849    -785.4533   -1420.0604    805.58112   -1188.1218            0            0            0            0            0   -573.64254   -25.889456 
 4965000    332.22087    373.22818    814.40079    31854.032   -1204.9343    395.12464   -809.80963    -1437.225    805.44351   -1204.9343            0            0            0            0            0   -573.15279   -26.391103 
 4970000    345.61433    9.8199769    816.93317    31755.289   -1221.6689    411.05406   -810.61487   -1456.1497    808.04621   -1221.6689            0            0            0            0            0   -573.56543   -26.473166 
 4975000     345.5806   -309.05636    830.83575     31223.92   -1281.4437    411.01394   -870.42978   -1508.6963    800.77232   -1281.4437            0            0            0            0            0   -573.51977   -26.923687 
 4980000    346.36083    -131.9291    837.92292    30959.827   -1265.3008     411.9419   -853.35892    -1499.511    807.68802   -1265.3008            0            0            0            0            0   -573.47786   -27.153351 
 4985000    334.64015   -224.94639    802.87289    32311.402   -1202.4404    398.00199    -804.4384   -1439.2065    810.21013   -1202.4404            0            0            0            0            0   -573.44403   -26.017535 
 4990000     336.7221    307.32509    823.41106    31505.465   -1238.4351    400.47815   -837.95692   -1461.6834     796.6991   -1238.4351            0            0            0            0            0   -573.45082   -26.683086 
 4995000    322.45647   -626.73736    798.23889    32498.978   -1189.4835    383.51141   -805.97211   -1428.8329    812.85894   -1189.4835            0            0            0            0            0   -573.50952   -25.867368 
 5000000    340.58626    387.12912    831.67355    31192.466   -1259.8793    405.07396   -854.80536   -1482.2129    796.23526   -1259.8793            0            0            0            0            0   -573.90171   -26.950836 
Loop time of 177063 on 1 procs for 5000000 steps with 2400 atoms

Performance: 2.440 ns/day, 9.837 hours/ns, 28.239 timesteps/s
100.0% CPU use with 1 MPI tasks x 1 OpenMP threads

MPI task timing breakdown:
Section |  min time  |  avg time  |  max time  |%varavg| %total
---------------------------------------------------------------
Pair    | 1.6276e+05 | 1.6276e+05 | 1.6276e+05 |   0.0 | 91.92
Bond    | 8.9959     | 8.9959     | 8.9959     |   0.0 |  0.01
Kspace  | 5376.7     | 5376.7     | 5376.7     |   0.0 |  3.04
Neigh   | 5103.9     | 5103.9     | 5103.9     |   0.0 |  2.88
Comm    | 597.43     | 597.43     | 597.43     |   0.0 |  0.34
Output  | 0.097586   | 0.097586   | 0.097586   |   0.0 |  0.00
Modify  | 3083.2     | 3083.2     | 3083.2     |   0.0 |  1.74
Other   |            | 136.2      |            |       |  0.08

Nlocal:        2400.00 ave        2400 max        2400 min
Histogram: 1 0 0 0 0 0 0 0 0 0
Nghost:        18476.0 ave       18476 max       18476 min
Histogram: 1 0 0 0 0 0 0 0 0 0
Neighs:    1.78563e+06 ave 1.78563e+06 max 1.78563e+06 min
Histogram: 1 0 0 0 0 0 0 0 0 0

Total # of neighbors = 1785630
Ave neighs/atom = 744.01250
Ave special neighs/atom = 8.5000000
Neighbor list builds = 83162
Dangerous builds = 0
Total wall time: 59:07:13
