LAMMPS (29 Sep 2021 - Update 2)
OMP_NUM_THREADS environment is not set. Defaulting to 1 thread. (src/comm.cpp:98)
  using 1 OpenMP thread(s) per MPI task
Reading data file ...
  orthogonal box = (-15.466318 -15.466318 -15.466318) to (15.466318 15.466318 15.466318)
  1 by 1 by 1 MPI processor grid
  reading atoms ...
  2400 atoms
  scanning bonds ...
  3 = max bonds/atom
  scanning angles ...
  3 = max angles/atom
  scanning dihedrals ...
  4 = max dihedrals/atom
  reading bonds ...
  2400 bonds
  reading angles ...
  3600 angles
  reading dihedrals ...
  3600 dihedrals
Finding 1-2 1-3 1-4 neighbors ...
  special bond factors lj:    0        0        0       
  special bond factors coul:  0        0        0       
     3 = max # of 1-2 neighbors
     4 = max # of 1-3 neighbors
     8 = max # of 1-4 neighbors
    10 = max # of special neighbors
  special bonds CPU = 0.001 seconds
  read_data CPU = 0.024 seconds
  200 rigid bodies with 2400 atoms
PPPM initialization ...
  using 12-bit tables for long-range coulomb (src/kspace.cpp:340)
  G vector (1/distance) = 0.1428774
  grid = 6 6 6
  stencil order = 5
  estimated absolute RMS force accuracy = 0.0078609937
  estimated relative force accuracy = 2.3673149e-05
  using double precision FFTW3
  3d grid and FFT values/proc = 1331 216
Neighbor list info ...
  update every 1 steps, delay 10 steps, check yes
  max neighbors/atom: 2000, page size: 100000
  master list distance cutoff = 16.655
  ghost atom cutoff = 16.655
  binsize = 8.3275, bins = 4 4 4
  1 neighbor lists, perpetual/occasional/extra = 1 0 0
  (1) pair lj/cut/coul/long, perpetual
      attributes: half, newton on
      pair build: half/bin/newton
      stencil: half/bin/3d
      bin: standard
Setting up Verlet run ...
  Unit style    : real
  Current step  : 0
  Time step     : 1
Per MPI rank memory allocation (min/avg/max) = 29.12 | 29.12 | 29.12 Mbytes
Step Temp E_pair E_mol TotEng Press 
       0    330.60693     12647.25            0    13040.455    96835.942 
    5000    9339.5122    1922.5302            0    13030.416    77690.809 
Loop time of 336.207 on 1 procs for 5000 steps with 2400 atoms

Performance: 1.285 ns/day, 18.678 hours/ns, 14.872 timesteps/s
100.0% CPU use with 1 MPI tasks x 1 OpenMP threads

MPI task timing breakdown:
Section |  min time  |  avg time  |  max time  |%varavg| %total
---------------------------------------------------------------
Pair    | 279.4      | 279.4      | 279.4      |   0.0 | 83.10
Bond    | 0.0050824  | 0.0050824  | 0.0050824  |   0.0 |  0.00
Kspace  | 8.9263     | 8.9263     | 8.9263     |   0.0 |  2.66
Neigh   | 45.435     | 45.435     | 45.435     |   0.0 | 13.51
Comm    | 1.0208     | 1.0208     | 1.0208     |   0.0 |  0.30
Output  | 4.0748e-05 | 4.0748e-05 | 4.0748e-05 |   0.0 |  0.00
Modify  | 1.2922     | 1.2922     | 1.2922     |   0.0 |  0.38
Other   |            | 0.1307     |            |       |  0.04

Nlocal:        2400.00 ave        2400 max        2400 min
Histogram: 1 0 0 0 0 0 0 0 0 0
Nghost:        19200.0 ave       19200 max       19200 min
Histogram: 1 0 0 0 0 0 0 0 0 0
Neighs:    1.88103e+06 ave 1.88103e+06 max 1.88103e+06 min
Histogram: 1 0 0 0 0 0 0 0 0 0

Total # of neighbors = 1881033
Ave neighs/atom = 783.76375
Ave special neighs/atom = 8.5000000
Neighbor list builds = 434
Dangerous builds = 91
  create bodies CPU = 0.001 seconds
  200 rigid bodies with 2400 atoms
  3.8930168 = max distance from body owner to body atom
PPPM initialization ...
  using 12-bit tables for long-range coulomb (src/kspace.cpp:340)
  G vector (1/distance) = 0.1428774
  grid = 6 6 6
  stencil order = 5
  estimated absolute RMS force accuracy = 0.0078609937
  estimated relative force accuracy = 2.3673149e-05
  using double precision FFTW3
  3d grid and FFT values/proc = 1331 216
Setting up Verlet run ...
  Unit style    : real
  Current step  : 5000
  Time step     : 1
Per MPI rank memory allocation (min/avg/max) = 37.04 | 37.04 | 37.04 Mbytes
Step Temp E_pair E_mol TotEng Press Volume 
    5000    9339.5122    1922.5302            0    13030.416    93937.197    29597.212 
 1005000     318.3629   -1198.5567            0   -819.91395    81.703016    31994.991 
Loop time of 54784.5 on 1 procs for 1000000 steps with 2400 atoms

Performance: 1.577 ns/day, 15.218 hours/ns, 18.253 timesteps/s
100.0% CPU use with 1 MPI tasks x 1 OpenMP threads

MPI task timing breakdown:
Section |  min time  |  avg time  |  max time  |%varavg| %total
---------------------------------------------------------------
Pair    | 50328      | 50328      | 50328      |   0.0 | 91.86
Bond    | 2.248      | 2.248      | 2.248      |   0.0 |  0.00
Kspace  | 1792.6     | 1792.6     | 1792.6     |   0.0 |  3.27
Neigh   | 1629.8     | 1629.8     | 1629.8     |   0.0 |  2.97
Comm    | 157.58     | 157.58     | 157.58     |   0.0 |  0.29
Output  | 3.7204e-05 | 3.7204e-05 | 3.7204e-05 |   0.0 |  0.00
Modify  | 841.97     | 841.97     | 841.97     |   0.0 |  1.54
Other   |            | 32.53      |            |       |  0.06

Nlocal:        2400.00 ave        2400 max        2400 min
Histogram: 1 0 0 0 0 0 0 0 0 0
Nghost:        18230.0 ave       18230 max       18230 min
Histogram: 1 0 0 0 0 0 0 0 0 0
Neighs:    1.74107e+06 ave 1.74107e+06 max 1.74107e+06 min
Histogram: 1 0 0 0 0 0 0 0 0 0

Total # of neighbors = 1741067
Ave neighs/atom = 725.44458
Ave special neighs/atom = 8.5000000
Neighbor list builds = 16829
Dangerous builds = 0
PPPM initialization ...
  using 12-bit tables for long-range coulomb (src/kspace.cpp:340)
  G vector (1/distance) = 0.14118627
  grid = 6 6 6
  stencil order = 5
  estimated absolute RMS force accuracy = 0.008384382
  estimated relative force accuracy = 2.5249317e-05
  using double precision FFTW3
  3d grid and FFT values/proc = 1331 216
Setting up Verlet run ...
  Unit style    : real
  Current step  : 0
  Time step     : 1
Per MPI rank memory allocation (min/avg/max) = 37.04 | 37.04 | 37.04 Mbytes
Step Temp Press v_dens Volume PotEng KinEng TotEng E_vdwl E_coul E_pair E_bond E_angle E_dihed E_impro E_mol E_long E_tail 
       0     318.3629     190.2146     810.8128    31994.991   -1198.5853    378.64275   -819.94255   -1437.7546    811.00791   -1198.5853            0            0            0            0            0   -571.83864   -26.274832 
    5000    351.33071   -263.47468    807.66538    32119.674   -1206.7515     417.8528   -788.89869   -1441.8211    807.26319   -1206.7515            0            0            0            0            0   -572.19358   -26.172838 
   10000    338.46131    590.73059    840.93047    30849.101   -1264.7149    402.54666   -862.16821   -1491.7851    799.15285   -1264.7149            0            0            0            0            0   -572.08262   -27.250812 
   15000    351.93423    68.701123    836.99492    30994.153   -1272.5888    418.57059   -854.01824   -1502.3385    801.65922   -1272.5888            0            0            0            0            0   -571.90957   -27.123278 
   20000    329.09195   -482.38984    795.75248    32600.525   -1189.3766    391.40328   -797.97331   -1421.6448    804.22269   -1189.3766            0            0            0            0            0   -571.95444   -25.786794 
   25000    332.76175   -220.26435    807.86058    32111.913   -1207.4313    395.76793    -811.6634   -1439.1668    803.49188   -1207.4313            0            0            0            0            0   -571.75641   -26.179164 
   30000    344.05869     31.29962    823.68655    31494.928   -1237.8411    409.20387   -828.63726    -1470.681    804.89528   -1237.8411            0            0            0            0            0   -572.05538   -26.692013 
   35000    324.07807    73.552987    797.17021    32542.546   -1177.1562    385.44006   -791.71618   -1415.6322    810.53862   -1177.1562            0            0            0            0            0   -572.06268   -25.832737 
   40000    324.26133   -264.81061    812.38384    31933.118   -1232.5698    385.65802   -846.91175   -1452.1161    791.61235   -1232.5698            0            0            0            0            0   -572.06606   -26.325743 
   45000    341.37866   -471.61985    799.84607    32433.677   -1200.8483    406.01639   -794.83194   -1427.2233    797.99365   -1200.8483            0            0            0            0            0   -571.61868   -25.919449 
   50000     365.6535   -123.38026    796.00917    32590.012   -1171.3756    434.88751   -736.48814   -1400.4934    800.97462   -1171.3756            0            0            0            0            0   -571.85692   -25.795113 
   55000    360.75639     214.5075    802.82624    32313.279    -1189.072    429.06316   -760.00887   -1421.9167     804.7973    -1189.072            0            0            0            0            0   -571.95264   -26.016023 
   60000    337.61766    427.97171    803.01755    32305.581   -1167.7448    401.54327   -766.20156   -1403.4999    807.79585   -1167.7448            0            0            0            0            0   -572.04083   -26.022223 
   65000    322.35609    423.72776    827.03713    31367.332   -1233.1207    383.39203   -849.72869   -1467.0115    805.65677   -1233.1207            0            0            0            0            0   -571.76596   -26.800591 
   70000    337.18416   -152.54749    808.17229    32099.527   -1199.2804     401.0277   -798.25272   -1432.0041    804.87098   -1199.2804            0            0            0            0            0   -572.14733   -26.189265 
   75000    329.65743    42.414346    823.61195    31497.781   -1235.0415    392.07583   -842.96571   -1466.1391    803.23103   -1235.0415            0            0            0            0            0   -572.13351   -26.689596 
   80000    350.78331   -211.36771    818.63571    31689.246   -1240.9839    417.20175   -823.78212   -1473.3842    804.18475   -1240.9839            0            0            0            0            0   -571.78439   -26.528338 
   85000    319.99164    71.930046    799.73511    32438.176   -1180.5069    380.57989   -799.92705   -1413.0215    804.52842   -1180.5069            0            0            0            0            0   -572.01388   -25.915854 
   90000    358.22504   -24.041441    816.35496     31777.78   -1227.7068    426.05252   -801.65431   -1457.3274    801.49221   -1227.7068            0            0            0            0            0   -571.87168   -26.454429 
   95000    337.28927    395.71129    819.04738    31673.318   -1215.7285    401.15271   -814.57583   -1450.4705    806.65078   -1215.7285            0            0            0            0            0   -571.90883   -26.541678 
  100000    349.63827   -92.970746     818.8865    31679.541    -1228.392     415.8399   -812.55211   -1460.8637    804.43402    -1228.392            0            0            0            0            0   -571.96235   -26.536465 
  105000    348.29023    666.86758    828.18157    31323.987   -1224.0857    414.23663    -809.8491   -1460.0481    808.11698   -1224.0857            0            0            0            0            0   -572.15462   -26.837677 
  110000    363.45443   -94.098481     825.8887     31410.95   -1248.1551    432.27206   -815.88308   -1481.6427    805.34997   -1248.1551            0            0            0            0            0   -571.86238   -26.763375 
  115000    341.50303   -260.42042    816.83473    31759.116   -1234.8145    406.16431   -828.65014   -1469.2186    806.61855   -1234.8145            0            0            0            0            0   -572.21435   -26.469976 
  120000    337.80206    290.88284    841.69555    30821.059   -1279.2806    401.76259   -877.51798   -1509.3251    801.86308   -1279.2806            0            0            0            0            0   -571.81859   -27.275605 
  125000    334.31426   -343.36858    799.17795    32460.791   -1184.6565    397.61439   -787.04208   -1422.0782    809.43027   -1184.6565            0            0            0            0            0   -572.00853   -25.897799 
  130000    331.91241    -316.7182    803.76657    32275.476   -1216.0329    394.75778    -821.2751   -1446.2847    801.97494   -1216.0329            0            0            0            0            0   -571.72315   -26.046495 
  135000    364.15744   -120.28963    811.62029    31963.159   -1216.7971    433.10818   -783.68895   -1443.6209    798.52134   -1216.7971            0            0            0            0            0    -571.6976   -26.300999 
  140000    315.87885    284.73757      824.355     31469.39   -1236.8634    375.68837   -861.17508   -1464.5455    799.70045   -1236.8634            0            0            0            0            0   -572.01841   -26.713675 
  145000    323.46628    148.97784    815.99605    31791.758   -1206.4883    384.71242   -821.77583   -1446.2767    811.38886   -1206.4883            0            0            0            0            0    -571.6004   -26.442798 
  150000    349.51553   -32.734099    803.82911    32272.965   -1192.6437    415.69392   -776.94973   -1424.1429    803.54426   -1192.6437            0            0            0            0            0     -572.045   -26.048522 
  155000    331.66183    402.81292    835.10068    31064.456   -1242.1336    394.45975   -847.67383   -1476.7069    806.46431   -1242.1336            0            0            0            0            0   -571.89098   -27.061894 
  160000    349.52794   -137.44182    806.35496    32171.872   -1193.4219    415.70868   -777.71322   -1431.2711    809.71543   -1193.4219            0            0            0            0            0   -571.86623   -26.130373 
  165000     322.2109    493.10051    831.34093    31204.946   -1222.6981    383.21934   -839.47876   -1458.4927     807.8046   -1222.6981            0            0            0            0            0   -572.01003   -26.940057 
  170000    350.41817    250.83326    828.11215    31326.613   -1251.2916    416.76747   -834.52418   -1476.6725    797.50471   -1251.2916            0            0            0            0            0   -572.12389   -26.835427 
  175000    362.42124    108.68434    803.18725    32298.755   -1178.3009    431.04324   -747.25765   -1405.9964    799.84602   -1178.3009            0            0            0            0            0   -572.15053   -26.027722 
  180000    340.38481    558.11313    824.84824    31450.572   -1217.2878    404.83436    -812.4534   -1453.8949    808.79985   -1217.2878            0            0            0            0            0   -572.19276   -26.729658 
  185000    350.01751   -424.50673    778.37449    33328.364   -1151.6726    416.29095   -735.38165   -1382.0136    802.37172   -1151.6726            0            0            0            0            0   -572.03075   -25.223651 
  190000    340.03055    30.960803    794.21972    32663.441   -1167.2374    404.41303   -762.82433   -1401.1798    806.00008   -1167.2374            0            0            0            0            0   -572.05762   -25.737124 
  195000    346.51439   -184.25459    808.54295    32084.812   -1220.5546    412.12453   -808.43009   -1443.3307     794.9467   -1220.5546            0            0            0            0            0   -572.17064   -26.201277 
  200000     350.8137    405.75803     829.3258    31280.769   -1241.0331    417.23789   -823.79522   -1482.8532    813.63939   -1241.0331            0            0            0            0            0    -571.8193   -26.874756 
  205000    338.81999    -389.8127    804.09556    32262.271   -1186.7995    402.97326   -783.82626   -1425.9952    811.06656   -1186.7995            0            0            0            0            0   -571.87091   -26.057156 
  210000     339.9921    -181.6268    797.29213     32537.57   -1189.1389     404.3673   -784.77163   -1417.3383    800.22358   -1189.1389            0            0            0            0            0   -572.02417   -25.836688 
  215000    352.19914   -173.66581    817.76133     31723.13   -1233.1061    418.88566   -814.22048   -1455.9928    794.90419   -1233.1061            0            0            0            0            0    -572.0175   -26.500003 
  220000    341.79038    248.19538    819.87341    31641.408   -1224.9988    406.50607    -818.4927   -1459.6406     806.4871   -1224.9988            0            0            0            0            0   -571.84527   -26.568446 
  225000     344.4159    -212.8174    802.59603    32322.548   -1189.7911    409.62871   -780.16242   -1423.5339    805.65304   -1189.7911            0            0            0            0            0   -571.91028   -26.008563 
  230000    342.58746   -275.20302    807.86416    32111.771   -1210.4516    407.45407   -802.99753   -1444.8328    806.31335   -1210.4516            0            0            0            0            0   -571.93215    -26.17928 
  235000    322.65152    141.14076    814.57914    31847.058   -1204.6256     383.7434   -820.88217   -1446.3453    813.46208   -1204.6256            0            0            0            0            0    -571.7423   -26.396882 
  240000    327.69137      79.5206    826.54573    31385.981   -1246.8266    389.73751   -857.08908   -1479.1679    804.33864   -1246.8266            0            0            0            0            0   -571.99736   -26.784666 
  245000    371.06958    43.048883    807.57442    32123.292   -1200.8322    441.32909   -759.50309    -1430.668    801.75726   -1200.8322            0            0            0            0            0   -571.92147   -26.169891 
  250000    343.81815    279.45971    820.46946    31618.421    -1214.758    408.91779   -805.84018   -1446.1536    803.35637    -1214.758            0            0            0            0            0   -571.96072   -26.587762 
  255000    364.68634    454.78378    830.47147    31237.616   -1226.8426    433.73723   -793.10535   -1465.5128    810.57526   -1226.8426            0            0            0            0            0   -571.90507   -26.911882 
  260000    319.26624    133.28604    811.25245    31977.652   -1198.0042    379.71714    -818.2871   -1434.1746    808.09093   -1198.0042            0            0            0            0            0   -571.92054   -26.289079 
  265000     338.1646    160.37832    813.05475    31906.767   -1210.7773    402.19378   -808.58354   -1441.5849    802.69257   -1210.7773            0            0            0            0            0   -571.88497   -26.347484 
  270000    331.27356    91.797848      815.165    31824.169   -1200.1084    393.99796   -806.11043   -1440.0675    812.20062   -1200.1084            0            0            0            0            0   -572.24151   -26.415868 
  275000    315.65461    152.33618     818.7947    31683.093   -1218.5738    375.42167    -843.1521   -1445.6709    799.08687   -1218.5738            0            0            0            0            0   -571.98974    -26.53349 
  280000    354.59496     381.6152    814.33761    31856.503   -1204.0659    421.73511   -782.33079   -1441.6397    809.64388   -1204.0659            0            0            0            0            0   -572.07006   -26.389056 
  285000    346.67213   -365.48005    810.92042    31990.745     -1228.69    412.31214   -816.37785   -1459.2774    802.52877     -1228.69            0            0            0            0            0   -571.94134    -26.27832 
  290000    315.83067   -432.59825    810.89511    31991.744    -1224.707    375.63106   -849.07596   -1455.7278    803.06747    -1224.707            0            0            0            0            0   -572.04665     -26.2775 
  295000    331.73111   -63.318532    814.70957    31841.959   -1207.2802    394.54215   -812.73807   -1445.4962    810.20109   -1207.2802            0            0            0            0            0   -571.98509   -26.401109 
  300000    343.03297    31.901439    804.88223    32230.738   -1202.5099    407.98394   -794.52599   -1433.8166     803.1144   -1202.5099            0            0            0            0            0   -571.80768   -26.082649 
  305000    309.05521    -697.5413    791.08238     32792.98   -1181.0403    367.57271   -813.46761   -1417.1743    807.95009   -1181.0403            0            0            0            0            0   -571.81615   -25.635457 
  310000    318.52552    28.724293    786.01831    33004.255   -1131.7561    378.83617   -752.91993   -1369.3661    809.54023   -1131.7561            0            0            0            0            0   -571.93019   -25.471353 
  315000     336.4926   -277.35928    818.60211    31690.547   -1241.0585    400.20519   -840.85328   -1475.0693    806.06744   -1241.0585            0            0            0            0            0   -572.05659   -26.527249 
  320000    362.10261   -75.258695    809.83974    32033.435     -1203.34    430.66428   -772.67576   -1438.3366    806.70897     -1203.34            0            0            0            0            0   -571.71237     -26.2433 
  325000     327.5679   -221.63887    824.24564    31473.565   -1244.8776    389.59066   -855.28698   -1482.4397    809.58575   -1244.8776            0            0            0            0            0   -572.02374   -26.710131 
  330000    320.79565    -7.169025    809.68593     32039.52   -1216.1509    381.53613   -834.61474    -1442.597      798.401   -1216.1509            0            0            0            0            0   -571.95483   -26.238315 
  335000    355.68087    730.58867    815.09258    31826.996   -1194.2405    423.02663   -771.21386   -1431.2406     808.9838   -1194.2405            0            0            0            0            0   -571.98369   -26.413521 
  340000    350.45332   -318.93703    818.74363    31685.069    -1238.001    416.80927    -821.1917   -1472.1033    805.96679    -1238.001            0            0            0            0            0   -571.86444   -26.531835 
  345000    338.42618    406.73591    812.27428    31937.425   -1185.8376    402.50488   -783.33273   -1422.0933    808.42577   -1185.8376            0            0            0            0            0   -572.17005   -26.322192 
  350000    344.87699    22.956997    817.49772    31733.359    -1224.364     410.1771   -814.18687   -1456.3391    803.90954    -1224.364            0            0            0            0            0   -571.93445   -26.491461 
  355000    331.21824    85.379146    807.63322    32120.953   -1209.6641    393.93216   -815.73196   -1441.5987    803.77866   -1209.6641            0            0            0            0            0   -571.84408   -26.171796 
  360000     344.5078    312.14719    822.12891      31554.6   -1231.5429    409.73801   -821.80488    -1464.902    805.39515   -1231.5429            0            0            0            0            0   -572.03607   -26.641537 
  365000    329.65982    242.89533    836.59096    31009.119   -1270.4471    392.07867   -878.36844   -1497.4345    798.89495   -1270.4471            0            0            0            0            0   -571.90758   -27.110188 
  370000    357.38634   -555.94408    814.63434    31844.899   -1238.1259    425.05502   -813.07083   -1466.2367    799.98703   -1238.1259            0            0            0            0            0   -571.87617   -26.398671 
  375000    324.25867   -321.24756    821.00782    31597.688   -1249.8742    385.65485   -864.21935   -1473.7544    795.94326   -1249.8742            0            0            0            0            0   -572.06303   -26.605207 
  380000    329.66789    208.93776    799.57125    32444.824   -1163.0264    392.08827   -770.93816   -1401.8486     810.9204   -1163.0264            0            0            0            0            0   -572.09823   -25.910544 
  385000    335.57611    453.24748    819.73199    31646.866   -1210.4254    399.11517   -811.31026   -1442.7208    804.39848   -1210.4254            0            0            0            0            0    -572.1031   -26.563863 
  390000    336.44782   -457.37719    789.26766    32868.379   -1166.2903    400.15193   -766.13835   -1401.0203    806.61182   -1166.2903            0            0            0            0            0   -571.88177    -25.57665 
  395000      311.427   -287.69397    827.65621     31343.87   -1257.3908    370.39358   -886.99723    -1494.587     808.8984   -1257.3908            0            0            0            0            0    -571.7022   -26.820652 
  400000    340.28317    -639.2193    793.15876    32707.132   -1195.3546    404.71347    -790.6411   -1427.8826    804.55432   -1195.3546            0            0            0            0            0   -572.02632   -25.702744 
  405000    331.43511   -17.928328    817.42834    31736.052   -1225.3655     394.1901    -831.1754   -1455.5772    802.09798   -1225.3655            0            0            0            0            0   -571.88625   -26.489212 
  410000    352.21622   -336.58629    799.18898    32460.343   -1197.7883    418.90597   -778.88232   -1423.7696    798.00118   -1197.7883            0            0            0            0            0   -572.01981   -25.898156 
  415000    349.84212    433.73237    810.40714    32011.007   -1184.2571    416.08235   -768.17475    -1417.652     805.4339   -1184.2571            0            0            0            0            0   -572.03897   -26.261687 
  420000    369.12046    302.73394    823.61234    31497.766    -1237.261    439.01091   -798.25005   -1468.5172    802.91201    -1237.261            0            0            0            0            0   -571.65581   -26.689608 
  425000    355.98789     313.1148    835.16659    31062.005   -1261.2658    423.39178   -837.87401   -1490.8233    801.62636   -1261.2658            0            0            0            0            0   -572.06885    -27.06403 
  430000    333.93132   -419.74716    798.27035    32497.698   -1186.6355    397.15895   -789.47658   -1424.9539    810.31885   -1186.6355            0            0            0            0            0   -572.00049   -25.868387 
  435000    335.71653     171.1399    815.83306    31798.109   -1219.3758    399.28217   -820.09358   -1443.9532    796.62103   -1219.3758            0            0            0            0            0    -572.0436   -26.437517 
  440000    340.85728   -296.13571    823.01087    31520.785   -1255.3282     405.3963   -849.93192   -1489.7182     806.4193   -1255.3282            0            0            0            0            0   -572.02932   -26.670117 
  445000    325.84765    68.322917    828.75539    31302.299   -1244.6462     387.5447    -857.1015   -1480.7019    807.79131   -1244.6462            0            0            0            0            0   -571.73559   -26.856271 
  450000    342.86072    121.43989    814.95284    31832.454   -1218.0705    407.77907   -810.29145   -1446.4197    800.66843   -1218.0705            0            0            0            0            0   -572.31921   -26.408992 
  455000     352.7812    13.504329    829.10789     31288.99   -1258.0363    419.57793   -838.45842   -1481.5387    795.39484   -1258.0363            0            0            0            0            0   -571.89249   -26.867695 
  460000    351.79971   -284.35893    801.92686    32349.519   -1196.9439     418.4106   -778.53326   -1423.7579    798.64999   -1196.9439            0            0            0            0            0   -571.83598   -25.986879 
  465000    344.91782   -171.05393    790.25537    32827.298   -1170.9181    410.22567   -760.69243    -1404.237    805.21848   -1170.9181            0            0            0            0            0   -571.89954   -25.608658 
  470000    350.24522    -165.8713    813.43657    31891.791   -1224.2297    416.56177   -807.66788   -1457.3399    805.09374   -1224.2297            0            0            0            0            0    -571.9835   -26.359857 
  475000    341.61367   -140.34186    798.66169    32481.774   -1180.2223     406.2959   -773.92636   -1415.3121    807.02338   -1180.2223            0            0            0            0            0   -571.93358   -25.881069 
  480000    342.91206     355.7993    821.10682    31593.878   -1219.3486    407.84013   -811.50848   -1455.7969    808.52973   -1219.3486            0            0            0            0            0   -572.08146   -26.608416 
  485000    341.31417    567.93883    823.88443    31487.364   -1223.3357    405.93969   -817.39597   -1454.7016    803.40989   -1223.3357            0            0            0            0            0   -572.04391   -26.698425 
  490000    315.14467   -152.18599    820.83983    31604.154   -1249.6546    374.81517   -874.83938   -1482.5495    804.96229   -1249.6546            0            0            0            0            0   -572.06735   -26.599764 
  495000    325.19644   -384.28447    811.20584     31979.49   -1219.9608    386.77018   -833.19067   -1453.6217    805.49406   -1219.9608            0            0            0            0            0   -571.83321   -26.287569 
  500000    326.55786    349.02478    812.88655    31913.369   -1190.9721    388.38938   -802.58276   -1433.7929    814.75781   -1190.9721            0            0            0            0            0   -571.93708   -26.342033 
  505000    356.09836   -344.71272    815.14609    31824.907   -1229.7576    423.52316   -806.23439    -1457.441    799.86918   -1229.7576            0            0            0            0            0   -572.18572   -26.415255 
  510000    309.48887    364.67973    804.71494    32237.439   -1191.7733    368.08849   -823.68477   -1416.5153    796.53689   -1191.7733            0            0            0            0            0   -571.79482   -26.077228 
  515000    348.10189   -398.76095    791.64702     32769.59    -1173.816    414.01262   -759.80341   -1402.2187    800.41822    -1173.816            0            0            0            0            0   -572.01552   -25.653755 
  520000     341.0517   -161.13364    820.22358    31627.899   -1235.8258    405.62753   -830.19829   -1463.2702    799.32824   -1235.8258            0            0            0            0            0    -571.8839   -26.579794 
  525000    336.43237   -218.37015    808.65666    32080.301   -1216.6421    400.13355    -816.5085   -1444.5366    799.94331   -1216.6421            0            0            0            0            0   -572.04881   -26.204961 
  530000    337.26934   -457.93786    787.11673    32958.197   -1150.8538      401.129   -749.72485   -1386.4772    807.46601   -1150.8538            0            0            0            0            0   -571.84267   -25.506948 
  535000    355.83397    381.33478     820.3658    31622.416   -1212.0334    423.20871   -788.82465   -1445.4445    805.40328   -1212.0334            0            0            0            0            0   -571.99215   -26.584402 
  540000    331.40986   -149.60672    813.06027    31906.551   -1210.5655    394.16007   -816.40539   -1447.6638    808.74636   -1210.5655            0            0            0            0            0   -571.64807   -26.347663 
  545000    348.04389    5.4694672    829.72869     31265.58   -1265.7298    413.94364   -851.78615   -1496.9106    803.23289   -1265.7298            0            0            0            0            0   -572.05206   -26.887812 
  550000    335.20914    174.14716    820.54264    31615.601    -1233.572    398.67872    -834.8933   -1454.7296    793.35108    -1233.572            0            0            0            0            0   -572.19347   -26.590133 
  555000    341.35627    127.66657    821.09927    31594.168   -1223.0561    405.98976   -817.06635   -1459.0827    808.16499   -1223.0561            0            0            0            0            0   -572.13836   -26.608171 
  560000    351.57003    -301.8653    797.22135    32540.459   -1185.8959    418.13743    -767.7585    -1421.907    808.17078   -1185.8959            0            0            0            0            0   -572.15973   -25.834394 
  565000    337.05523   -357.57014    821.49809     31578.83     -1248.78    400.87435   -847.90568   -1480.7111    804.05555     -1248.78            0            0            0            0            0   -572.12445   -26.621095 
  570000    323.71943   -150.31213    813.45986    31890.878    -1204.286    385.01351   -819.27247   -1443.7037    811.36122    -1204.286            0            0            0            0            0   -571.94353   -26.360612 
  575000    337.19774   -656.85064    791.66432    32768.874   -1181.0478    401.04384   -780.00398   -1423.6605    814.77236   -1181.0478            0            0            0            0            0   -572.15963   -25.654315 
  580000    351.67619   -318.57259    793.50164        32693   -1177.9581    418.26369   -759.69444   -1409.4027    803.47262   -1177.9581            0            0            0            0            0   -572.02808   -25.713854 
  585000    331.82131   -471.24703    787.90947    32925.037   -1164.2031    394.64942   -769.55368   -1398.0709    806.00566   -1164.2031            0            0            0            0            0   -572.13785   -25.532637 
  590000    323.56889    250.40215        821.4    31582.601   -1233.7147    384.83447   -848.88028   -1462.3116     800.5799   -1233.7147            0            0            0            0            0   -571.98301   -26.617916 
  595000     324.3117    182.84244    817.61595     31728.77   -1223.0572    385.71792   -837.33927   -1467.0908     815.7768   -1223.0572            0            0            0            0            0   -571.74321   -26.495292 
  600000    325.03549    448.23424    815.30159    31818.837   -1195.5028    386.57876   -808.92404   -1429.8258    806.32579   -1195.5028            0            0            0            0            0   -572.00283   -26.420294 
  605000    329.37693    275.72442    823.63804    31496.783   -1229.5622    391.74222   -837.81994   -1461.3873    803.71302   -1229.5622            0            0            0            0            0   -571.88784   -26.690441 
  610000    344.71263    119.76865     822.3939    31544.432   -1234.6028    409.98162   -824.62116   -1463.3372    800.80621   -1234.6028            0            0            0            0            0   -572.07182   -26.650124 
  615000    329.84374   -44.316752    811.72236     31959.14   -1203.3824    392.29742   -811.08502   -1446.5975    815.16996   -1203.3824            0            0            0            0            0   -571.95491   -26.304307 
  620000    317.08299    74.036949    802.92253    32309.404   -1170.4169     377.1205   -793.29642   -1414.3755    815.51279   -1170.4169            0            0            0            0            0   -571.55423   -26.019144 
  625000    326.68715   -159.56657    816.05742    31789.367   -1228.8001    388.54315   -840.25696   -1462.0737    805.21518   -1228.8001            0            0            0            0            0   -571.94161   -26.444787 
  630000    332.71855    224.89287    821.20524    31590.092   -1230.7513    395.71655   -835.03478   -1465.7031    806.88031   -1230.7513            0            0            0            0            0   -571.92855   -26.611605 
  635000    361.53446    551.59046    813.66924    31882.671   -1205.8308    429.98856   -775.84225   -1437.3139      803.348   -1205.8308            0            0            0            0            0   -571.86491   -26.367397 
  640000      341.215   -186.26869    827.36052    31355.072    -1259.094    405.82175   -853.27227   -1496.8611    809.75497    -1259.094            0            0            0            0            0   -571.98793    -26.81107 
  645000    350.43346   -316.48369    818.85016    31680.947   -1251.5751    416.78566   -834.78947   -1475.9791     796.7105   -1251.5751            0            0            0            0            0    -572.3065   -26.535287 
  650000    340.46022   -625.54911    786.75438    32973.377   -1185.6822    404.92406   -780.75816   -1405.5834    791.85111   -1185.6822            0            0            0            0            0    -571.9499   -25.495206 
  655000    338.88778   -45.998986    808.95134    32068.614   -1195.9606    403.05388   -792.90673   -1428.9235    804.99017   -1195.9606            0            0            0            0            0   -572.02729   -26.214511 
  660000    346.88676    199.02252    801.49137    32367.097   -1165.9847    412.56741   -753.41727    -1404.863    810.83045   -1165.9847            0            0            0            0            0   -571.95208   -25.972766 
  665000    336.41271    86.580722    813.29655    31897.281   -1207.4734    400.11017   -807.36324   -1445.4154      809.954   -1207.4734            0            0            0            0            0   -572.01199    -26.35532 
  670000    311.03693    98.174541     824.0577    31480.743   -1240.3473    369.92966   -870.41762   -1465.3496    796.85849   -1240.3473            0            0            0            0            0   -571.85612    -26.70404 
  675000    354.30261    108.98469    806.39737     32170.18   -1204.0246     421.3874   -782.63717   -1438.2435    805.97337   -1204.0246            0            0            0            0            0   -571.75448   -26.131748 
  680000    328.60215   -8.7634556    823.22634    31512.535    -1239.121    390.82074    -848.3003   -1468.1436    801.08282    -1239.121            0            0            0            0            0   -572.06029     -26.6771 
  685000    364.27499    117.48835    820.53916    31615.735   -1221.5692    433.24799   -788.32124   -1457.2646    807.77289   -1221.5692            0            0            0            0            0   -572.07748    -26.59002 
  690000    357.54458    91.548357     812.2245    31939.382   -1214.6457    425.24322   -789.40252   -1447.5647    805.08218   -1214.6457            0            0            0            0            0   -572.16322   -26.320579 
  695000    349.44081    43.305305     821.5783    31575.747   -1233.1177    415.60505   -817.51261    -1463.383    802.44766   -1233.1177            0            0            0            0            0   -572.18234   -26.623694 
  700000    324.75931   -257.36972    816.49394    31772.371    -1235.661    386.25028   -849.41075   -1465.1362     801.5514    -1235.661            0            0            0            0            0   -572.07622   -26.458933 
  705000     359.7754   -274.74033    818.96032    31676.686    -1238.397    427.89643   -810.50062   -1467.4936    801.12642    -1238.397            0            0            0            0            0   -572.02991   -26.538857 
  710000    325.94546    253.96124    816.32195    31779.065   -1214.4547    387.66102    -826.7937   -1439.0281    796.77785   -1214.4547            0            0            0            0            0   -572.20444   -26.453359 
  715000     326.9784   -437.57956    801.96882    32347.827    -1214.836    388.88954   -825.94641   -1444.0822    801.36753    -1214.836            0            0            0            0            0   -572.12129   -25.988238 
  720000    338.06224   -374.05174    776.99104    33387.706   -1130.6538    402.07203   -728.58175   -1367.6893    808.93623   -1130.6538            0            0            0            0            0   -571.90067    -25.17882 
  725000    354.35937    28.425315    820.86011    31603.374   -1225.5285    421.45492   -804.07362   -1457.7269    804.11959   -1225.5285            0            0            0            0            0   -571.92128   -26.600421 
  730000    352.29042    154.60876    820.52772    31616.176   -1221.4026    418.99421   -802.40839   -1455.2386    805.66951   -1221.4026            0            0            0            0            0   -571.83353    -26.58965 
  735000    345.42204   -520.23053    824.84517    31450.689    -1262.765    410.82535   -851.93965    -1495.441    804.98118    -1262.765            0            0            0            0            0   -572.30521   -26.729559 
  740000     353.0292   -42.496145    816.09421    31787.934   -1212.9433    419.87289   -793.07039   -1447.0116    806.02249   -1212.9433            0            0            0            0            0   -571.95418   -26.445979 
  745000    335.47761    43.889179    827.25485    31359.077   -1241.0867    398.99802   -842.08869   -1467.3005    798.49563   -1241.0867            0            0            0            0            0   -572.28182   -26.807646 
  750000    336.80818   -427.38939    817.13489     31747.45   -1230.8865    400.58052   -830.30598   -1469.0525    810.20094   -1230.8865            0            0            0            0            0   -572.03496   -26.479703 
  755000    336.71294    427.75248    818.87621    31679.939   -1215.2271    400.46725   -814.75981   -1447.9513    804.73811   -1215.2271            0            0            0            0            0   -572.01384   -26.536131 
  760000    323.37766    560.61224    818.15295    31707.945   -1210.4311    384.60702   -825.82412   -1443.9217    805.23952   -1210.4311            0            0            0            0            0   -571.74892   -26.512694 
  765000    333.74878    287.44956    823.66846     31495.62    -1229.792    396.94184   -832.85017   -1463.3458    805.50445    -1229.792            0            0            0            0            0   -571.95065   -26.691427 
  770000    346.85073   -139.75902    807.29368    32134.463   -1203.3026    412.52456   -790.77802   -1436.4995    804.94934   -1203.3026            0            0            0            0            0   -571.75242   -26.160793 
  775000    332.50594   -133.61028    817.02505    31751.717   -1230.6162    395.46369   -835.15249   -1466.5951    807.97229   -1230.6162            0            0            0            0            0   -571.99334   -26.476144 
  780000    318.37434    175.63976    819.49761    31655.917   -1224.0432    378.65636   -845.38687   -1458.9045    806.67959   -1224.0432            0            0            0            0            0   -571.81829   -26.556268 
  785000    335.08319   -263.73767     820.3487    31623.075   -1234.3392    398.52892   -835.81027   -1469.6362    807.30412   -1234.3392            0            0            0            0            0   -572.00715   -26.583848 
  790000    335.01581     0.714882    789.96925    32839.188   -1158.4851    398.44878   -760.03633   -1392.5972    806.21151   -1158.4851            0            0            0            0            0   -572.09944   -25.599386 
  795000    346.09147    185.40947    828.71854     31303.69   -1237.2286    411.62154   -825.60706   -1473.8705    808.81612   -1237.2286            0            0            0            0            0   -572.17422   -26.855077 
  800000    348.71661   -291.01767    811.00114    31987.561   -1222.0799    414.74373   -807.33614   -1454.2611    804.16438   -1222.0799            0            0            0            0            0   -571.98312   -26.280935 
  805000    373.29301   -350.92807    811.42079    31971.018   -1217.5603    443.97351   -773.58684   -1454.4744    808.80118   -1217.5603            0            0            0            0            0   -571.88713   -26.294534 
  810000     350.6682    109.04759    831.03223    31216.537    -1258.435    417.06484   -841.37014   -1491.5395    805.11395    -1258.435            0            0            0            0            0   -572.00947   -26.930054 
  815000    333.22014    53.039337     810.3187    32014.501   -1199.5225    396.31312   -803.20943   -1432.0649     804.5101   -1199.5225            0            0            0            0            0   -571.96771   -26.258821 
  820000    347.33556     38.87176    820.43122    31619.895   -1229.8185    413.10119    -816.7173   -1461.3886    803.67999   -1229.8185            0            0            0            0            0   -572.10985   -26.586522 
  825000    335.74377   -434.72579    814.82402    31837.487   -1220.8002    399.31457   -821.48563   -1457.8439    808.97478   -1220.8002            0            0            0            0            0   -571.93103   -26.404818 
  830000    341.74595   -224.91179     819.5804     31652.72   -1235.8386    406.45322   -829.38533   -1471.0338    807.19809   -1235.8386            0            0            0            0            0   -572.00282   -26.558951 
  835000    320.70865    192.25799    808.15105    32100.371   -1195.0827    381.43266   -813.65008   -1428.1338    804.76748   -1195.0827            0            0            0            0            0   -571.71644   -26.188577 
  840000    308.02861    317.20041    817.77437    31722.624   -1211.7046    366.35173   -845.35289   -1446.8738    807.12043   -1211.7046            0            0            0            0            0   -571.95127   -26.500426 
  845000    365.25337   -252.19166    797.75589    32518.655   -1169.1649    434.41162   -734.75328   -1414.5717    817.40616   -1169.1649            0            0            0            0            0   -571.99937   -25.851716 
  850000    341.71801    226.66891    810.47978    32008.138   -1194.3682       406.42   -787.94818   -1423.1333    800.70263   -1194.3682            0            0            0            0            0   -571.93746    -26.26404 
  855000    340.67782       -117.7    807.69868     32118.35    -1212.561    405.18285   -807.37814   -1447.1794    806.17874    -1212.561            0            0            0            0            0   -571.56037   -26.173917 
  860000    312.03999   -247.78129    805.58052      32202.8   -1198.5386    371.12265   -827.41591   -1433.1944    806.52674   -1198.5386            0            0            0            0            0   -571.87086   -26.105277 
  865000    344.20488   -151.23282    821.84345     31565.56   -1237.0537    409.37773   -827.67595   -1468.6226    803.67809   -1237.0537            0            0            0            0            0   -572.10923   -26.632286 
  870000    345.81221   -132.40954    809.63829    32041.405   -1210.2379    411.28941   -798.94848   -1442.0523    803.71517   -1210.2379            0            0            0            0            0   -571.90075   -26.236772 
  875000    355.08119    185.46658    832.84887    31148.447   -1246.4531    422.31341    -824.1397     -1480.89    806.33625   -1246.4531            0            0            0            0            0   -571.89934   -26.988923 
  880000    328.28889   -414.06883    814.20802    31861.573     -1222.25    390.44816   -831.80183   -1455.1772    804.96999     -1222.25            0            0            0            0            0   -572.04277   -26.384856 
  885000    324.87606   -205.25642     803.0583    32303.942   -1199.9674    386.38914    -813.5783   -1430.0021    802.07834   -1199.9674            0            0            0            0            0   -572.04363   -26.023543 
  890000    338.22729    476.07869    813.92696    31872.576   -1187.0894    402.26833   -784.82104   -1420.2612    804.91642   -1187.0894            0            0            0            0            0   -571.74458   -26.375748 
  895000    335.62785   -163.12514    798.04852    32506.731   -1176.7355     399.1767    -777.5588   -1409.7814    804.97434   -1176.7355            0            0            0            0            0   -571.92843   -25.861199 
  900000    345.74369   -636.65853    804.43592     32248.62   -1219.5536     411.2079    -808.3457   -1447.6852    800.02673   -1219.5536            0            0            0            0            0    -571.8951   -26.068186 
  905000    337.76978    10.228189    814.98749    31831.101   -1216.2411    401.72419    -814.5169   -1445.1599    800.86562   -1216.2411            0            0            0            0            0   -571.94677   -26.410115 
  910000    341.84086    304.23493    808.75778    32076.289   -1185.0478     406.5661   -778.48171   -1423.0051     809.8935   -1185.0478            0            0            0            0            0   -571.93623   -26.208238 
  915000    356.86658   -60.706071    800.93356    32389.639   -1190.9642    424.43684   -766.52732   -1422.8491    803.83344   -1190.9642            0            0            0            0            0   -571.94849    -25.95469 
  920000    333.03669   -195.84181    806.60068    32162.071   -1204.1874    396.09492   -808.09247   -1442.1164    809.71709   -1204.1874            0            0            0            0            0   -571.78812   -26.138336 
  925000    334.26648    6.9236022    814.70985    31841.948   -1228.5557    397.55756   -830.99814   -1457.9594    801.11381   -1228.5557            0            0            0            0            0   -571.71008   -26.401118 
  930000    318.78157    -202.8634    829.66584    31267.948   -1258.1966     379.1407   -879.05589    -1490.605    804.44511   -1258.1966            0            0            0            0            0   -572.03671   -26.885775 
  935000     370.0684    200.87888    819.68008     31648.87    -1227.395    440.13834   -787.25663   -1455.5713    800.07434    -1227.395            0            0            0            0            0   -571.89799   -26.562181 
  940000    331.48174   -116.35485    799.57116    32444.828   -1188.4367    394.24555   -794.19119   -1415.1365    798.53265   -1188.4367            0            0            0            0            0   -571.83291   -25.910541 
  945000    341.54984   -59.178625    808.03495    32104.984    -1202.502    406.21998   -796.28197   -1437.3268    806.72534    -1202.502            0            0            0            0            0   -571.90045   -26.184814 
  950000    351.13372    104.46078    826.68617    31380.649   -1245.5578    417.61851   -827.93931   -1468.1679    794.54078   -1245.5578            0            0            0            0            0   -571.93071   -26.789218 
  955000      329.525    221.20259    806.25728     32175.77   -1175.9332    391.91832   -784.01493   -1409.7435    805.82506   -1175.9332            0            0            0            0            0   -572.01486   -26.127208 
  960000    343.16548    20.333091    812.41591    31931.857   -1220.6842    408.14153   -812.54271   -1452.9318    803.95744   -1220.6842            0            0            0            0            0   -571.70989   -26.326782 
  965000    351.06978    471.42976    818.50948    31694.133   -1224.0735    417.54245   -806.53103   -1452.8625    800.63296   -1224.0735            0            0            0            0            0   -571.84392   -26.524247 
  970000    330.63265    -76.34363     816.9926    31752.979   -1226.4838     393.2357   -833.24806   -1463.2081    808.96675   -1226.4838            0            0            0            0            0   -572.24237   -26.475092 
  975000     348.0123    64.331313    821.31682      31585.8   -1232.2575    413.90607   -818.35145   -1464.1232    803.87938   -1232.2575            0            0            0            0            0   -572.01374   -26.615221 
  980000    338.60906    65.542788    829.35208    31279.777   -1244.6689    402.72239   -841.94653    -1486.555      814.142   -1244.6689            0            0            0            0            0    -572.2559   -26.875608 
  985000    340.80795    227.09365    826.80198    31376.254   -1244.1203    405.33762   -838.78269   -1473.5448    801.45147   -1244.1203            0            0            0            0            0   -572.02698    -26.79297 
  990000    320.39291   -627.03884    794.45796    32653.645   -1185.5118    381.05714   -804.45463   -1421.1499    807.68982   -1185.5118            0            0            0            0            0   -572.05171   -25.744845 
  995000    351.15113   -112.56838    822.35095     31546.08   -1251.8649    417.63922   -834.22567   -1481.8177    802.01636   -1251.8649            0            0            0            0            0   -572.06351   -26.648732 
 1000000    338.87463   -53.342808    817.40465    31736.972   -1225.1855    403.03824    -822.1473   -1460.8629    807.71119   -1225.1855            0            0            0            0            0   -572.03384   -26.488445 
 1005000    328.61267    56.003385    826.83889    31374.853   -1256.5026    390.83324   -865.66939   -1485.0295    800.44911   -1256.5026            0            0            0            0            0   -571.92228   -26.794166 
 1010000    324.69082   -41.484323    813.14463     31903.24   -1215.8915    386.16883   -829.72265   -1444.6158    800.68046   -1215.8915            0            0            0            0            0   -571.95608   -26.350397 
 1015000    329.43925    170.01426    824.71413    31455.686   -1235.4914    391.81633    -843.6751   -1470.2402    806.65616   -1235.4914            0            0            0            0            0   -571.90744   -26.725312 
 1020000    333.08947   -76.226955    797.46938    32530.338   -1172.0139     396.1577    -775.8562   -1403.2116    803.13555   -1172.0139            0            0            0            0            0   -571.93783   -25.842431 
 1025000    337.05407    134.05777    811.42694    31970.775   -1207.4788    400.87297    -806.6058   -1436.9308    801.54143   -1207.4788            0            0            0            0            0   -572.08944   -26.294734 
 1030000    326.97698   -452.07432    822.05104    31557.589   -1252.1979    388.88786   -863.31007   -1489.4331     809.3144   -1252.1979            0            0            0            0            0   -572.07919   -26.639013 
 1035000    328.73763   -145.90532    829.52623    31273.211   -1259.8575    390.98186   -868.87564   -1496.5756    808.60413   -1259.8575            0            0            0            0            0   -571.88603   -26.881251 
 1040000    322.85127    132.45872    815.51451     31810.53   -1199.5136    383.98096   -815.53267   -1435.0239    807.38551   -1199.5136            0            0            0            0            0   -571.87525   -26.427194 
 1045000    329.69253    139.74028     811.2075    31979.424   -1216.6195    392.11757   -824.50191   -1450.8077    805.92177   -1216.6195            0            0            0            0            0   -571.73351   -26.287623 
 1050000    371.18633   -386.99977    793.52854    32691.891   -1184.1149    441.46795   -742.64693   -1424.1976    812.00974   -1184.1149            0            0            0            0            0   -571.92701   -25.714726 
 1055000    318.48604    111.31971     823.1846    31514.133   -1236.1298    378.78921   -857.34062   -1469.7382    805.46734   -1236.1298            0            0            0            0            0   -571.85893   -26.675747 
 1060000    342.48412   -35.008125    831.64477    31193.545   -1255.5706    407.33116   -848.23943   -1486.7085     803.2129   -1255.5706            0            0            0            0            0   -572.07498   -26.949904 
 1065000    329.73464    503.54373    827.06024    31366.456   -1228.9384    392.16766   -836.77076   -1455.4517    798.35618   -1228.9384            0            0            0            0            0    -571.8429   -26.801339 
 1070000    323.05608   -152.80887    804.05444    32263.921   -1182.6024    384.22456   -798.37786   -1422.9839     812.4662   -1182.6024            0            0            0            0            0   -572.08467   -26.055824 
 1075000    366.10302    102.81796    843.21392     30765.56   -1280.5461    435.42214   -845.12401   -1514.1209    805.70001   -1280.5461            0            0            0            0            0   -572.12528   -27.324808 
 1080000    323.30013   -183.07758    805.04944    32224.044   -1199.8657    384.51481    -815.3509   -1438.8226    811.03648   -1199.8657            0            0            0            0            0   -572.07963   -26.088068 
 1085000    358.69193   -257.97727    808.65414    32080.401    -1210.533    426.60781   -783.92516     -1440.54    802.25958    -1210.533            0            0            0            0            0   -572.25252    -26.20488 
 1090000    340.04364     39.41786    829.73724    31265.258   -1239.0178     404.4286   -834.58916   -1476.7262      809.592   -1239.0178            0            0            0            0            0   -571.88354   -26.888089 
 1095000    336.52634   -310.34621    824.37765    31468.525   -1261.0811    400.24532   -860.83575   -1488.6516    799.52689   -1261.0811            0            0            0            0            0   -571.95639   -26.714409 
 1100000    336.54022    152.57943    816.63975    31766.698   -1200.2361    400.26182    -799.9743   -1439.0754    810.84725   -1200.2361            0            0            0            0            0   -572.00801   -26.463658 
 1105000    331.65514   -5.2721855    825.78978    31414.713   -1231.5962    394.45178   -837.14441   -1468.5386     808.8816   -1231.5962            0            0            0            0            0   -571.93919   -26.760169 
 1110000    334.73941   -264.07613    811.37288    31972.906   -1218.1992    398.12004    -820.0792   -1451.7624    805.47128   -1218.1992            0            0            0            0            0   -571.90813   -26.292982 
 1115000     355.9717   -258.41198    814.53514    31848.778   -1236.7068    423.37252   -813.33427   -1468.7175    803.59087   -1236.7068            0            0            0            0            0   -571.58015   -26.395457 
 1120000    343.63031    195.81047    822.13207    31554.478   -1218.4276    408.69437   -809.73328   -1452.8736    806.54175   -1218.4276            0            0            0            0            0   -572.09581   -26.641639 
 1125000    336.23953   -240.51532    826.34141    31393.742   -1263.4947     399.9042    -863.5905   -1492.1104    800.69793   -1263.4947            0            0            0            0            0   -572.08226   -26.778045 
 1130000    348.31127   -223.47758    801.31946    32374.041     -1196.96    414.26165    -782.6983    -1427.636    802.92286     -1196.96            0            0            0            0            0    -572.2468   -25.967195 
 1135000    349.53946    146.68605    820.55626    31615.076   -1226.4824    415.72238   -810.76005   -1463.9162    809.18262   -1226.4824            0            0            0            0            0   -571.74881   -26.590574 
 1140000    349.74835   -9.2794166     824.1278    31478.065   -1244.5005    415.97083    -828.5297    -1478.196     805.7594   -1244.5005            0            0            0            0            0   -572.06394   -26.706312 
 1145000     340.5082    405.00928    827.84016    31336.905   -1227.2299    404.98112   -822.24875   -1454.7776    799.30084   -1227.2299            0            0            0            0            0   -571.75307   -26.826613 
 1150000    338.18286    707.49362    832.80624    31150.041   -1235.8887    402.21548   -833.67319   -1463.9806     800.1212   -1235.8887            0            0            0            0            0   -572.02926   -26.987542 
 1155000    338.89639    3.3932301    817.29856    31741.092   -1224.8185    403.06412   -821.75436   -1456.6265    803.68039   -1224.8185            0            0            0            0            0   -571.87232   -26.485007 
 1160000    304.73393   -82.974863    827.68552     31342.76   -1250.7335    362.43323   -888.30023   -1484.0229     805.2192   -1250.7335            0            0            0            0            0   -571.92976   -26.821602 
 1165000    334.20165   -415.85811    810.45832    32008.986   -1219.6392    397.48046   -822.15876   -1449.1237    801.51399   -1219.6392            0            0            0            0            0   -572.02951   -26.263345 
 1170000    374.32113    -219.2586    806.78116    32154.877   -1202.3979    445.19629   -757.20157   -1438.5764    808.00896   -1202.3979            0            0            0            0            0   -571.83044   -26.144185 
 1175000     348.4842    254.66875    826.46359      31389.1   -1241.3723    414.46732   -826.90501    -1468.871    799.50003   -1241.3723            0            0            0            0            0   -572.00135   -26.782005 
 1180000    342.19071    11.793344    821.65995    31572.609   -1237.1388     406.9822   -830.15659   -1468.8471    803.88162   -1237.1388            0            0            0            0            0   -572.17331    -26.62634 
 1185000    330.19621    301.80812     818.2167    31705.474   -1216.7337    392.71662    -824.0171   -1442.0147    797.34084   -1216.7337            0            0            0            0            0   -572.05988    -26.51476 
 1190000     361.5786   -370.84282    822.77116    31529.968   -1250.1769    430.04105   -820.13582   -1477.9318     799.7393   -1250.1769            0            0            0            0            0    -571.9844   -26.662349 
 1195000    358.25578    380.59623    820.54351    31615.567   -1221.5656    426.08908   -795.47648   -1449.1438    799.38523   -1221.5656            0            0            0            0            0   -571.80696   -26.590161 
 1200000    352.29281   -118.09897    820.87589    31602.766   -1237.9061    418.99706   -818.90908   -1471.0752    805.15457   -1237.9061            0            0            0            0            0   -571.98555   -26.600932 
 1205000    314.28631    287.75177    810.00807    32026.778   -1195.4908    373.79429   -821.69648   -1428.9885    805.45971   -1195.4908            0            0            0            0            0   -571.96199   -26.248755 
 1210000    365.84385   -275.46044    809.06238    32064.213   -1209.1969     435.1139   -774.08296   -1443.1517    806.05784   -1209.1969            0            0            0            0            0   -572.10303   -26.218109 
 1215000    339.00513   -197.20459    791.77139    32764.443   -1166.4781    403.19345   -763.28465   -1409.1337    814.65229   -1166.4781            0            0            0            0            0   -571.99667   -25.657785 
 1220000    339.85098   -26.237186    797.25808     32538.96    -1175.007    404.19945   -770.80759   -1413.8592    810.75949    -1175.007            0            0            0            0            0   -571.90735   -25.835584 
 1225000     343.3747    416.26036    829.75713    31264.508   -1226.2695    408.39036   -817.87914   -1465.1535    810.99563   -1226.2695            0            0            0            0            0    -572.1116   -26.888734 
 1230000    332.33834   -354.39318    816.42905    31774.897   -1233.4566    395.26435   -838.19222   -1463.2301    801.84056   -1233.4566            0            0            0            0            0   -572.06699    -26.45683 
 1235000     319.8532    119.57776    817.39412    31737.381   -1205.6266    380.41523   -825.21137   -1439.9974    806.40003   -1205.6266            0            0            0            0            0   -572.02926   -26.488104 
 1240000    361.69939   -553.66036    800.24115    32417.664   -1203.5395    430.18472   -773.35477   -1434.9985    803.40059   -1203.5395            0            0            0            0            0   -571.94158   -25.932252 
 1245000    328.83152   -64.432476    811.77859    31956.926   -1198.6679    391.09354   -807.57439   -1442.3292    815.65739   -1198.6679            0            0            0            0            0   -571.99611   -26.306129 
 1250000    338.64676   -37.417052    811.20815    31979.399   -1202.9045    402.76723   -800.13728   -1443.4084     812.4842   -1202.9045            0            0            0            0            0   -571.98025   -26.287644 
 1255000    343.62659    258.15237    816.09684    31787.831   -1205.0897    408.68996   -796.39975   -1443.2023    810.01229   -1205.0897            0            0            0            0            0   -571.89972   -26.446064 
 1260000    337.57457   -116.46988    816.69407    31764.586   -1214.0717    401.49202   -812.57967   -1452.8182    810.64415   -1214.0717            0            0            0            0            0   -571.89761   -26.465418 
 1265000    340.54877   -148.05796    795.85355    32596.385   -1175.4285    405.02937   -770.39916   -1409.7243    806.47222   -1175.4285            0            0            0            0            0   -572.17648    -25.79007 
 1270000    335.80677    26.302537    814.14915    31863.877   -1213.3302     399.3895   -813.94071   -1446.7468    805.44345   -1213.3302            0            0            0            0            0   -572.02687   -26.382948 
 1275000    366.15947   -139.48203    821.84455    31565.518   -1237.8253    435.48928   -802.33599   -1482.4573    816.51681   -1237.8253            0            0            0            0            0   -571.88475   -26.632322 
 1280000    327.64949   -109.11004     815.8545    31797.273   -1225.2651     389.6877   -835.57742   -1460.3395    807.07661   -1225.2651            0            0            0            0            0   -572.00223   -26.438211 
 1285000    315.64488    461.60413    809.73163    32037.712   -1187.3883     375.4101    -811.9782   -1418.8955    803.55568   -1187.3883            0            0            0            0            0   -572.04849   -26.239796 
 1290000    327.18419    331.08025     834.9721     31069.24   -1237.8947    389.13429    -848.7604   -1475.0862    809.10741   -1237.8947            0            0            0            0            0   -571.91587   -27.057728 
 1295000    335.45788    -15.53047    809.67046    32040.132   -1208.4754    398.97455   -809.50087   -1434.0193    797.51224   -1208.4754            0            0            0            0            0   -571.96837   -26.237814 
 1300000    331.89298    200.71155    824.87635      31449.5   -1234.9451    394.73466   -840.21044   -1467.5827    804.64167   -1234.9451            0            0            0            0            0   -572.00409   -26.730569 
 1305000    321.63109    25.908337    823.35167    31507.738     -1238.96    382.52975   -856.43025   -1465.7845    798.65173     -1238.96            0            0            0            0            0   -571.82722   -26.681161 
 1310000    339.83909    129.85778    816.61179    31767.786   -1218.4475    404.18531    -814.2622   -1450.4229    803.78434   -1218.4475            0            0            0            0            0    -571.8089   -26.462752 
 1315000    340.24282    78.965199    822.39256    31544.484   -1232.4988    404.66548   -827.83329   -1464.1538    803.77942   -1232.4988            0            0            0            0            0   -572.12436   -26.650081 
 1320000    335.86393    119.33632    821.65958    31572.624    -1235.014    399.45749   -835.55649    -1462.738    799.78849    -1235.014            0            0            0            0            0    -572.0645   -26.626328 
 1325000    327.79164     -251.566    800.98708    32387.474    -1198.651    389.85677   -808.79425   -1428.1091    801.33275    -1198.651            0            0            0            0            0   -571.87471   -25.956424 
 1330000    333.66297   -141.43479    818.01885    31713.143   -1222.3577    396.83978   -825.51789   -1460.9305    810.56334   -1222.3577            0            0            0            0            0   -571.99047   -26.508348 
 1335000    344.30492   -216.59727    817.89949    31717.771   -1246.5799    409.49672   -837.08321    -1469.631    795.17985   -1246.5799            0            0            0            0            0   -572.12882    -26.50448 
 1340000    322.03504    97.375309    823.01195    31520.743   -1228.5504    383.01019   -845.54018   -1461.2404    804.66015   -1228.5504            0            0            0            0            0   -571.97012   -26.670153 
 1345000    337.81406   -275.20363    817.88131    31718.476   -1238.3288    401.77686   -836.55195    -1470.934     804.6199   -1238.3288            0            0            0            0            0   -572.01475   -26.503891 
 1350000    348.30188   -55.827411    805.20597     32217.78   -1189.0878    414.25048   -774.83732   -1418.6277    801.81683   -1189.0878            0            0            0            0            0   -572.27692    -26.09314 
 1355000      340.645   -384.99115    800.43776    32409.701   -1197.3599    405.14382   -792.21606   -1433.2551    807.90651   -1197.3599            0            0            0            0            0    -572.0113   -25.938623 
 1360000      328.868   -32.159836    816.25857    31781.533   -1215.0978    391.13693   -823.96082   -1451.4154    808.33434   -1215.0978            0            0            0            0            0   -572.01664   -26.451305 
 1365000     375.6289   -193.35698    801.18702    32379.392   -1198.2122    446.75168   -751.46047   -1424.8333    798.73265   -1198.2122            0            0            0            0            0   -572.11146   -25.962903 
 1370000    344.57466   -692.12601    830.29747    31244.162   -1279.9105    409.81753   -870.09301   -1506.9079    799.27839   -1279.9105            0            0            0            0            0   -572.28103   -26.906243 
 1375000    331.94577   -6.6018468    819.52691    31654.785   -1243.6088    394.79744   -848.81139   -1469.9691    798.54186   -1243.6088            0            0            0            0            0   -572.18157   -26.557218 
 1380000    343.72635    104.92175    825.53142    31424.544   -1238.4559     408.8086   -829.64735   -1471.2097    804.91123   -1238.4559            0            0            0            0            0   -572.15745   -26.751797 
 1385000    321.82528   -175.31536    836.36335    31017.558   -1279.6068    382.76072    -896.8461   -1506.3582    798.58299   -1279.6068            0            0            0            0            0   -571.83161   -27.102812 
 1390000    305.87568   -228.83913    814.59184    31846.561   -1221.7738    363.79117   -857.98267   -1456.4014    806.64618   -1221.7738            0            0            0            0            0   -572.01863   -26.397294 
 1395000    370.98809     -574.903     801.1212    32382.052   -1204.7112    441.23216   -763.47902   -1438.0972    805.08554   -1204.7112            0            0            0            0            0    -571.6995   -25.960771 
 1400000    317.04756    201.17117    828.58478    31308.744   -1244.4895    377.07836   -867.41118   -1468.3847    795.91906   -1244.4895            0            0            0            0            0   -572.02395   -26.850743 
 1405000    328.54553    452.49613    848.42869    30576.463   -1283.7019    390.75339   -892.94851   -1517.2954    805.69875   -1283.7019            0            0            0            0            0   -572.10525   -27.493796 
 1410000    362.71298   -41.484297    809.70123    32038.915   -1200.7892    431.39022     -769.399   -1435.7776    807.00369   -1200.7892            0            0            0            0            0   -572.01536   -26.238811 
 1415000    330.89837    235.88256    830.93482    31220.197   -1246.8773    393.55173   -853.32557   -1472.2517    797.46254   -1246.8773            0            0            0            0            0   -572.08818   -26.926897 
 1420000    360.22012   -173.41062     800.3233    32414.336   -1182.5096    428.42536   -754.08421   -1422.7361    812.33433   -1182.5096            0            0            0            0            0   -572.10777   -25.934914 
 1425000    340.81738    126.55274    842.98276    30773.997   -1283.4528    405.34883   -878.10396   -1514.1364    802.59631   -1283.4528            0            0            0            0            0   -571.91274   -27.317317 
 1430000    310.40134   -450.24132    812.36714    31933.774   -1216.7219    369.17372   -847.54818   -1456.3989    811.75361   -1216.7219            0            0            0            0            0   -572.07659   -26.325201 
 1435000    334.31617   -15.973513    825.69598    31418.281   -1241.2705    397.61667   -843.65382   -1476.0329    806.83121   -1241.2705            0            0            0            0            0    -572.0688    -26.75713 
 1440000    334.69774    134.38529    836.19275    31023.886   -1261.4968    398.07048    -863.4263   -1498.0204    808.14845   -1261.4968            0            0            0            0            0   -571.62482   -27.097284 
 1445000    342.09067   -163.78699    812.22623    31939.314   -1219.2388    406.86322   -812.37556    -1448.179    800.79783   -1219.2388            0            0            0            0            0   -571.85763   -26.320635 
 1450000    323.98937    271.55113    831.62365    31194.337     -1258.36    385.33456   -873.02545   -1485.3526    798.92355     -1258.36            0            0            0            0            0   -571.93095   -26.949219 
 1455000    341.90652   -670.40784    822.37342    31545.218    -1252.192    406.64419   -845.54779   -1491.0083    810.80988    -1252.192            0            0            0            0            0   -571.99356    -26.64946 
 1460000    346.23985   -64.013379    833.64619    31118.656    -1267.688    411.79801   -855.89002   -1492.9387    797.19778    -1267.688            0            0            0            0            0    -571.9471   -27.014761 
 1465000    335.39079    295.88915    828.16061     31324.78   -1242.0167    398.89476   -843.12198    -1470.175    800.38383   -1242.0167            0            0            0            0            0   -572.22553   -26.836998 
 1470000    320.89171   -318.88024    792.47065    32735.532   -1178.1919    381.65037   -796.54152   -1400.9752    794.82122   -1178.1919            0            0            0            0            0    -572.0379   -25.680445 
 1475000    330.20541    252.69395    820.14237    31631.031   -1219.6924    392.72756   -826.96487   -1448.2591    800.58009   -1219.6924            0            0            0            0            0   -572.01341   -26.577162 
 1480000    344.51303    336.44661    817.93345    31716.454   -1205.1556    409.74423   -795.41139   -1444.9888    811.66468   -1205.1556            0            0            0            0            0   -571.83146   -26.505581 
 1485000    331.50296    470.14054    818.82839     31681.79   -1213.5344    394.27079    -819.2636   -1441.9363    800.36877   -1213.5344            0            0            0            0            0   -571.96684   -26.534582 
 1490000    328.94846    439.10095    814.96419     31832.01   -1191.3324    391.23262   -800.09974   -1430.0388    810.78078   -1191.3324            0            0            0            0            0   -572.07431    -26.40936 
 1495000    333.57868    52.695811    822.22643    31550.857   -1237.1576    396.73954   -840.41801   -1470.0455    804.86763   -1237.1576            0            0            0            0            0   -571.97968   -26.644697 
 1500000    317.49931    195.51395     838.1839    30950.187   -1271.7679    377.61565    -894.1522   -1511.3595    811.48957   -1271.7679            0            0            0            0            0   -571.89787   -27.161808 
 1505000    340.98599    407.55535    814.84798     31836.55   -1206.5019    405.54938   -800.95255   -1433.3325    798.92184   -1206.5019            0            0            0            0            0   -572.09129   -26.405594 
 1510000    326.31744   -77.680352    817.77286    31722.682   -1222.4195    388.10343   -834.31606    -1461.938    811.43339   -1222.4195            0            0            0            0            0   -571.91491   -26.500377 
 1515000    321.62457   -211.59378    800.26403    32416.737   -1187.3604      382.522   -804.83839   -1416.5905    801.04278   -1187.3604            0            0            0            0            0   -571.81265   -25.932994 
 1520000    343.90398   -35.047105    827.02803    31367.677   -1235.3512    409.01986   -826.33134   -1476.6115    813.30297   -1235.3512            0            0            0            0            0   -572.04264   -26.800296 
 1525000     338.1972    167.36088    817.38411     31737.77   -1218.2274    402.23255   -815.99484   -1452.3941    806.12322   -1218.2274            0            0            0            0            0   -571.95647   -26.487779 
 1530000    320.15418   -76.354742    793.14015      32707.9   -1175.4239     380.7732   -794.65068   -1403.3209    799.84393   -1175.4239            0            0            0            0            0   -571.94691    -25.70214 
 1535000    335.35426    -85.75854    819.09384    31671.522   -1226.1722    398.85131   -827.32089   -1455.7962    801.67144   -1226.1722            0            0            0            0            0   -572.04746   -26.543184 
 1540000    328.47276    141.71419    829.12004    31288.532   -1266.8733    390.66684   -876.20648   -1496.5849    801.80027   -1266.8733            0            0            0            0            0   -572.08873   -26.868088 
 1545000    333.80758   -168.61911    796.71809    32561.014    -1175.074    397.01178   -778.06218   -1416.7829     813.6956    -1175.074            0            0            0            0            0    -571.9867   -25.818085 
 1550000    340.88174   -216.89225    794.78484    32640.216   -1177.4553    405.42539    -772.0299   -1413.5184    807.97829   -1177.4553            0            0            0            0            0   -571.91513   -25.755438 
 1555000    347.14816   -11.259274    807.63228     32120.99   -1203.4845     412.8783   -790.60616   -1436.0763     804.6239   -1203.4845            0            0            0            0            0   -572.03207   -26.171766 
 1560000    337.27416   -55.438373    820.17198    31629.889   -1226.5199    401.13473   -825.38519   -1462.4574    807.92061   -1226.5199            0            0            0            0            0   -571.98317   -26.578122 
 1565000    344.07339    73.681329    819.54825    31653.961   -1229.3253    409.22135     -820.104    -1465.321    807.95078   -1229.3253            0            0            0            0            0   -571.95509   -26.557909 
 1570000    355.74399   -436.12183    816.87994    31757.358   -1238.9676     423.1017   -815.86592   -1473.3738     806.5285   -1238.9676            0            0            0            0            0   -572.12229   -26.471441 
 1575000    337.16082    96.799023    822.88662    31525.544   -1243.3983    400.99993   -842.39841   -1474.5797    803.03821   -1243.3983            0            0            0            0            0   -571.85688   -26.666091 
 1580000    346.16298   -474.52404    815.49041     31811.47   -1240.7254    411.70659    -829.0188   -1474.9874    806.21626   -1240.7254            0            0            0            0            0   -571.95429   -26.426413 
 1585000    355.39914   -83.225953    809.52507    32045.887   -1205.9557    422.69156   -783.26419   -1435.8255    801.68065   -1205.9557            0            0            0            0            0   -571.81088   -26.233103 
 1590000    320.31943   -263.91266    808.98186    32067.405   -1211.3815    380.96974   -830.41176   -1443.1672    803.64775   -1211.3815            0            0            0            0            0   -571.86203     -26.2155 
 1595000    352.21883     410.3977    825.19974    31437.175   -1220.8695    418.90908   -801.96042   -1450.5019    801.67252   -1220.8695            0            0            0            0            0   -572.04016   -26.741049 
[...]
 4600000    324.02867    224.66075    837.48991    30975.834     -1267.44    385.38129   -882.05874   -1496.0392    800.67466     -1267.44            0            0            0            0            0   -572.07549   -27.139318 
 4605000    359.23845   -310.28996    821.63418      31573.6   -1240.3166    427.25781   -813.05879   -1473.6797    804.98421   -1240.3166            0            0            0            0            0   -571.62109   -26.625505 
 4610000    343.85876    141.60031    826.70105    31380.084    -1239.308    408.96609   -830.34196   -1471.7995    804.46475    -1239.308            0            0            0            0            0   -571.97331     -26.7897 
 4615000    346.79099   -276.62703    796.46675    32571.289   -1175.1282    412.45351   -762.67474   -1408.7799    805.72051   -1175.1282            0            0            0            0            0    -572.0689   -25.809941 
 4620000    334.57581   -160.51429    805.68693    32198.547   -1206.3526    397.92546   -808.42714   -1435.5996    801.29656   -1206.3526            0            0            0            0            0   -572.04961   -26.108726 
 4625000    333.66649    26.066026    819.02324    31674.252   -1216.5748    396.84397   -819.73082   -1461.4231    816.71304   -1216.5748            0            0            0            0            0   -571.86474   -26.540896 
 4630000    355.38241   -579.79156    815.64149    31805.577   -1242.3622    422.67165   -819.69056   -1471.2355     801.0162   -1242.3622            0            0            0            0            0   -572.14293   -26.431309 
 4635000    349.16068    333.65745    814.13799    31864.314   -1217.0532    415.27188   -801.78134   -1441.5374    796.46713   -1217.0532            0            0            0            0            0   -571.98296   -26.382587 
 4640000    366.39627    571.58123    827.65472    31343.926    -1219.727    435.77092   -783.95604   -1458.2488    810.40086    -1219.727            0            0            0            0            0   -571.87899   -26.820604 
 4645000    347.98724    232.27465    830.60753    31232.499   -1255.5634    413.87626   -841.68717   -1484.7412    801.14508   -1255.5634            0            0            0            0            0   -571.96727   -26.916291 
 4650000    327.62403    39.570295    808.24906    32096.479   -1192.4191    389.65742   -802.76173   -1429.6376     809.1995   -1192.4191            0            0            0            0            0   -571.98104   -26.191753 
 4655000    358.28911   -7.9122453    815.74745    31801.446   -1220.2739    426.12873    -794.1452    -1450.882    802.56148   -1220.2739            0            0            0            0            0   -571.95345   -26.434742 
 4660000    339.82864   -103.30174    833.15489    31137.006   -1268.4227    404.17288   -864.24986   -1499.1467    802.29206   -1268.4227            0            0            0            0            0   -571.56816    -26.99884 
 4665000    351.90485    -49.28188     805.3176    32213.314   -1196.4027    418.53565   -777.86707    -1432.147    807.53119   -1196.4027            0            0            0            0            0   -571.78694   -26.096757 
 4670000    330.67358    348.12541     813.2583    31898.781   -1207.4426    393.28438    -814.1582   -1432.5071    796.94158   -1207.4426            0            0            0            0            0   -571.87702    -26.35408 
 4675000    340.71535   -557.43977    799.04188    32466.319   -1198.8516    405.22749   -793.62407   -1435.5924    808.52396   -1198.8516            0            0            0            0            0   -571.78308   -25.893389 
 4680000    346.85491    87.337937    817.05712    31750.471   -1219.9946    412.52953   -807.46511   -1454.1026    806.04183   -1219.9946            0            0            0            0            0   -571.93383   -26.477183 
 4685000    347.75529    24.203351     808.3434    32092.733   -1197.0707    413.60039   -783.47027   -1436.1506    811.04115   -1197.0707            0            0            0            0            0   -571.96125    -26.19481 
 4690000    361.66995    293.53303    835.85834    31036.298   -1266.0551     430.1497   -835.90542   -1493.8331    799.88508   -1266.0551            0            0            0            0            0   -572.10709   -27.086447 
 4695000    334.35795   -101.27087    820.74872    31607.663    -1217.284    397.66636   -819.61764   -1464.4318    819.19422    -1217.284            0            0            0            0            0   -572.04645   -26.596811 
 4700000    349.49839    301.65564    824.67438    31457.202   -1239.6249    415.67353   -823.95136   -1466.9236    799.02085   -1239.6249            0            0            0            0            0   -571.72212   -26.724024 
 4705000    342.08091     -112.156    821.05774    31595.766   -1231.8131    406.85161   -824.96152   -1461.7708    802.17042   -1231.8131            0            0            0            0            0   -572.21274   -26.606825 
 4710000    363.19264    411.62855    818.21719    31705.455   -1210.9679     431.9607   -779.00717   -1442.5092    803.11246   -1210.9679            0            0            0            0            0   -571.57115   -26.514776 
 4715000    319.11702   -92.410484    813.57046    31886.542   -1217.5957    379.53966   -838.05608   -1451.9453    806.27415   -1217.5957            0            0            0            0            0   -571.92459   -26.364196 
 4720000    340.12365    61.838794    833.60692    31120.121   -1271.0717    404.52375   -866.54793   -1495.5364    796.47587   -1271.0717            0            0            0            0            0   -572.01117   -27.013488 
 4725000    347.25292      210.304    819.73484    31646.756   -1227.5186     413.0029   -814.51569   -1454.9278    799.47792   -1227.5186            0            0            0            0            0   -572.06871   -26.563956 
 4730000    337.46718   -443.56792    813.24235    31899.407   -1228.7073    401.36429   -827.34297    -1453.916     796.8175   -1228.7073            0            0            0            0            0   -571.60874   -26.353563 
 4735000    341.86665   -35.987845    822.33371    31546.741   -1235.2594    406.59678   -828.66265   -1471.6084    808.56131   -1235.2594            0            0            0            0            0   -572.21238   -26.648174 
 4740000    326.56725    -166.2947    811.52504    31966.911   -1211.9621    388.40054   -823.56151   -1445.9485    805.99693   -1211.9621            0            0            0            0            0   -572.01044   -26.297913 
 4745000    331.76352    200.57951    828.60841    31307.851   -1258.3948    394.58069   -863.81415   -1483.6786     797.2278   -1258.3948            0            0            0            0            0   -571.94404   -26.851509 
 4750000     334.5208   -246.27871     799.2418    32458.198   -1186.0964    397.86004   -788.23633   -1422.3181    808.15375   -1186.0964            0            0            0            0            0   -571.93199   -25.899868 
 4755000    319.70394   -65.843941    798.71746    32479.506   -1190.8139    380.23771   -810.57615   -1420.5823    801.61533   -1190.8139            0            0            0            0            0   -571.84687   -25.882876 
 4760000    350.88297    881.57334    824.33104    31470.304   -1207.1529    417.32028   -789.83264   -1445.5567    810.44473   -1207.1529            0            0            0            0            0   -572.04094   -26.712898 
 4765000    328.49004     192.6249    836.15958    31025.117   -1262.5352     390.6874    -871.8478   -1494.9187     804.0883   -1262.5352            0            0            0            0            0   -571.70482   -27.096208 
 4770000    335.64112   -107.61475     833.4422    31126.272   -1279.4723    399.19249   -880.27985   -1510.0685    802.50907   -1279.4723            0            0            0            0            0   -571.91296    -27.00815 
 4775000    319.47227   -232.52134    821.44972     31580.69   -1236.8656    379.96218   -856.90338   -1467.8692    803.26709   -1236.8656            0            0            0            0            0   -572.26347   -26.619528 
 4780000    330.73055    299.74986    823.94859    31484.912   -1233.6838    393.35213   -840.33168   -1460.5996    798.96787   -1233.6838            0            0            0            0            0    -572.0521   -26.700505 
 4785000    349.20368   -63.240782    822.77831    31529.695   -1234.6384    415.32303   -819.31533   -1472.7919    810.05424   -1234.6384            0            0            0            0            0   -571.90067   -26.662581 
 4790000    343.24269    75.964454    810.83926    31993.947   -1201.6012    408.23336   -793.36782   -1435.5434    805.60865   -1201.6012            0            0            0            0            0   -571.66643    -26.27569 
 4795000    337.88461    222.75705    816.45985    31773.698   -1219.2196    401.86076   -817.35882   -1451.9832    804.55433   -1219.2196            0            0            0            0            0   -571.79072   -26.457828 
 4800000     346.8195    106.50426    826.51726    31387.062   -1239.2594    412.48742   -826.77196   -1474.1306    806.67587   -1239.2594            0            0            0            0            0   -571.80462   -26.783744 
 4805000    361.49664    249.99963     815.0505     31828.64   -1210.3508    429.94358   -780.40726   -1443.9883    805.39741   -1210.3508            0            0            0            0            0   -571.75991   -26.412157 
 4810000    353.96524   -415.06832    811.37647    31972.764   -1228.3244    420.98615   -807.33827   -1453.7561    797.52081   -1228.3244            0            0            0            0            0   -572.08918   -26.293098 
 4815000    346.11976    396.34168    820.62904    31612.272   -1201.2838    411.65519   -789.62861    -1437.951    808.84538   -1201.2838            0            0            0            0            0   -572.17816   -26.592933 
 4820000    312.67281    -290.8162    813.09112     31905.34   -1230.3579    371.87529   -858.48262   -1454.7482    796.31536   -1230.3579            0            0            0            0            0   -571.92505   -26.348662 
 4825000    332.94801   -102.41318    813.20196    31900.991   -1210.2644    395.98945    -814.2749   -1447.3652    809.08376   -1210.2644            0            0            0            0            0   -571.98288   -26.352254 
 4830000    353.37643   -242.18835    811.96918    31949.425   -1214.0339    420.28586   -793.74805   -1450.6848    808.63206   -1214.0339            0            0            0            0            0    -571.9812   -26.312305 
 4835000    313.62561   -44.247426    824.64962    31458.147   -1241.3114    373.00849   -868.30286   -1470.6041    801.50018   -1241.3114            0            0            0            0            0   -572.20739   -26.723222 
 4840000    336.17336   -326.02899    825.51365    31425.221   -1262.7277    399.82551   -862.90222   -1495.2323    804.33682   -1262.7277            0            0            0            0            0   -571.83224   -26.751221 
 4845000    317.44831    244.25566    813.47461    31890.299   -1224.9233      377.555    -847.3683   -1448.3185      795.302   -1224.9233            0            0            0            0            0   -571.90676    -26.36109 
 4850000    341.49714    -321.8346     799.6017    32443.589    -1194.976    406.15731   -788.81872    -1426.835    803.86721    -1194.976            0            0            0            0            0   -572.00825    -25.91153 
 4855000    334.02809    378.76429    830.88948      31221.9   -1244.9642    397.27404    -847.6902   -1477.5882    804.62747   -1244.9642            0            0            0            0            0    -572.0035   -26.925428 
 4860000    315.48461   -66.963136     818.0812    31710.726   -1227.0903    375.21947    -851.8708   -1460.2663    805.05808   -1227.0903            0            0            0            0            0   -571.88205   -26.510369 
 4865000    334.73648    445.91755    823.20649    31513.295   -1216.5205    398.11657   -818.40396    -1454.197    809.74087   -1216.5205            0            0            0            0            0    -572.0644   -26.676457 
 4870000    340.49044   -217.55765    829.67734    31267.515   -1267.4639    404.95999   -862.50392   -1496.3063    800.89799   -1267.4639            0            0            0            0            0   -572.05557   -26.886148 
 4875000    338.11566    8.0454286    812.88549    31913.411   -1208.1091    402.13556   -805.97358   -1445.3427    809.12508   -1208.1091            0            0            0            0            0    -571.8915   -26.341999 
 4880000    343.07723   -317.45231    784.59768    33064.014   -1161.7924    408.03657   -753.75587   -1392.0288    802.23032   -1161.7924            0            0            0            0            0   -571.99397   -25.425317 
 4885000    346.18678   -104.51566    806.38394    32170.716   -1198.7522     411.7349   -787.01728   -1432.4906    805.71492   -1198.7522            0            0            0            0            0   -571.97653   -26.131312 
 4890000    340.54323   -80.373809    807.11629    32141.525   -1198.0102    405.02277   -792.98746   -1429.1306    803.08959   -1198.0102            0            0            0            0            0   -571.96923   -26.155045 
 4895000    333.90513   -358.72053    808.74694    32076.719   -1220.6387     397.1278   -823.51094   -1452.1752    803.59414   -1220.6387            0            0            0            0            0   -572.05773   -26.207887 
 4900000    331.04014    113.55413    806.99287    32146.441    -1190.804    393.72034   -797.08371   -1434.0182     815.1793    -1190.804            0            0            0            0            0   -571.96511   -26.151045 
 4905000    334.08821    15.951492    814.36636    31855.379   -1223.7136    397.34554   -826.36809   -1455.9242     803.9699   -1223.7136            0            0            0            0            0   -571.75934   -26.389987 
 4910000    328.69755   -293.75068    821.80069    31567.202   -1249.0807     390.9342   -858.14648   -1478.6452    801.81759   -1249.0807            0            0            0            0            0   -572.25308   -26.630901 
 4915000    348.16389   -74.538617    798.06902    32505.896   -1182.9325    414.08635   -768.84613   -1417.0901    805.78919   -1182.9325            0            0            0            0            0   -571.63156   -25.861863 
 4920000    319.46664    317.96004    839.55726    30899.559   -1268.1591    379.95548   -888.20365   -1501.9185    805.54764   -1268.1591            0            0            0            0            0    -571.7883   -27.206312 
 4925000    331.30108   -87.642003     811.9692    31949.424   -1213.0317    394.03069   -819.00101   -1446.9739    806.00202   -1213.0317            0            0            0            0            0   -572.05982   -26.312306 
 4930000    335.43473    38.614987    821.14403    31592.446   -1228.7108    398.94702   -829.76375   -1456.9828     800.4211   -1228.7108            0            0            0            0            0   -572.14912   -26.609621 
 4935000    324.05478   -8.2382335    806.34182    32172.396   -1193.7814    385.41235   -808.36904   -1430.3495      808.772   -1193.7814            0            0            0            0            0   -572.20386   -26.129948 
 4940000    334.24347    -36.48657    825.43283    31428.298   -1240.1728     397.5302   -842.64265   -1475.3746    807.21349   -1240.1728            0            0            0            0            0   -572.01174   -26.748602 
 4945000    340.32607   -407.54748    810.32352     32014.31   -1222.3998    404.76451   -817.63533   -1454.1738    803.91317   -1222.3998            0            0            0            0            0   -572.13921   -26.258977 
 4950000    339.00324   -292.89013     825.5848    31422.513   -1254.8754     403.1912   -851.68423   -1487.3759    804.31982   -1254.8754            0            0            0            0            0    -571.8194   -26.753527 
 4955000    331.98138   -33.933745    827.84498    31336.723   -1260.1808     394.8398   -865.34096   -1484.5812    796.50096   -1260.1808            0            0            0            0            0   -572.10053   -26.826769 
 4960000    359.33041    7.9254637     804.6876    32238.534   -1186.2908    427.36719   -758.92356   -1413.4283    799.10742   -1186.2908            0            0            0            0            0   -571.96984   -26.076342 
 4965000    344.00382   -152.14884      823.669    31495.599   -1243.6203    409.13861    -834.4817   -1474.9285    803.26017   -1243.6203            0            0            0            0            0   -571.95198   -26.691444 
 4970000    333.34196   -109.65688    816.19835    31783.878   -1231.8407      396.458   -835.38275   -1466.0067    806.12842   -1231.8407            0            0            0            0            0   -571.96246   -26.449354 
 4975000    358.32123    237.99361    831.64987    31193.354   -1254.4971    426.16693   -828.33019   -1483.7179    801.32019   -1254.4971            0            0            0            0            0    -572.0994   -26.950069 
 4980000    355.69873    -17.83688    800.18479    32419.947   -1188.6889    423.04787   -765.64102   -1421.4731     804.3651   -1188.6889            0            0            0            0            0   -571.58085   -25.930426 
 4985000    336.08189    227.68015    807.27303    32135.285   -1193.0118    399.71672   -793.29504   -1418.8657    797.69467   -1193.0118            0            0            0            0            0   -571.84073   -26.160124 
 4990000    324.43403   -471.57798    809.63978    32041.346   -1229.4208    385.86341   -843.55737   -1457.1773    799.87242   -1229.4208            0            0            0            0            0   -572.11587    -26.23682 
 4995000    332.02302   -487.76669    813.67657    31882.384   -1222.8632    394.88932   -827.97384   -1460.5139    809.87571   -1222.8632            0            0            0            0            0   -572.22499   -26.367634 
 5000000    356.98708    295.80976    805.09674    32222.151   -1182.0451    424.58016   -757.46497   -1411.5617    801.48426   -1182.0451            0            0            0            0            0    -571.9677     -26.0896 
Loop time of 276306 on 1 procs for 5000000 steps with 2400 atoms

Performance: 1.563 ns/day, 15.350 hours/ns, 18.096 timesteps/s
100.0% CPU use with 1 MPI tasks x 1 OpenMP threads

MPI task timing breakdown:
Section |  min time  |  avg time  |  max time  |%varavg| %total
---------------------------------------------------------------
Pair    | 2.5388e+05 | 2.5388e+05 | 2.5388e+05 |   0.0 | 91.88
Bond    | 10.895     | 10.895     | 10.895     |   0.0 |  0.00
Kspace  | 9012.8     | 9012.8     | 9012.8     |   0.0 |  3.26
Neigh   | 8199.7     | 8199.7     | 8199.7     |   0.0 |  2.97
Comm    | 783.17     | 783.17     | 783.17     |   0.0 |  0.28
Output  | 0.074391   | 0.074391   | 0.074391   |   0.0 |  0.00
Modify  | 4261.5     | 4261.5     | 4261.5     |   0.0 |  1.54
Other   |            | 162.3      |            |       |  0.06

Nlocal:        2400.00 ave        2400 max        2400 min
Histogram: 1 0 0 0 0 0 0 0 0 0
Nghost:        18068.0 ave       18068 max       18068 min
Histogram: 1 0 0 0 0 0 0 0 0 0
Neighs:    1.72451e+06 ave 1.72451e+06 max 1.72451e+06 min
Histogram: 1 0 0 0 0 0 0 0 0 0

Total # of neighbors = 1724508
Ave neighs/atom = 718.54500
Ave special neighs/atom = 8.5000000
Neighbor list builds = 83816
Dangerous builds = 0
Total wall time: 92:03:46
