LAMMPS (29 Sep 2021 - Update 2)
OMP_NUM_THREADS environment is not set. Defaulting to 1 thread. (src/comm.cpp:98)
  using 1 OpenMP thread(s) per MPI task
Reading data file ...
  orthogonal box = (-15.466318 -15.466318 -15.466318) to (15.466318 15.466318 15.466318)
  1 by 1 by 1 MPI processor grid
  reading atoms ...
  2400 atoms
  scanning bonds ...
  3 = max bonds/atom
  scanning angles ...
  3 = max angles/atom
  scanning dihedrals ...
  4 = max dihedrals/atom
  reading bonds ...
  2400 bonds
  reading angles ...
  3600 angles
  reading dihedrals ...
  3600 dihedrals
Finding 1-2 1-3 1-4 neighbors ...
  special bond factors lj:    0        0        0       
  special bond factors coul:  0        0        0       
     3 = max # of 1-2 neighbors
     4 = max # of 1-3 neighbors
     8 = max # of 1-4 neighbors
    10 = max # of special neighbors
  special bonds CPU = 0.001 seconds
  read_data CPU = 0.024 seconds
  200 rigid bodies with 2400 atoms
PPPM initialization ...
  using 12-bit tables for long-range coulomb (src/kspace.cpp:340)
  G vector (1/distance) = 0.1428774
  grid = 6 6 6
  stencil order = 5
  estimated absolute RMS force accuracy = 0.0078609937
  estimated relative force accuracy = 2.3673149e-05
  using double precision FFTW3
  3d grid and FFT values/proc = 1331 216
Neighbor list info ...
  update every 1 steps, delay 10 steps, check yes
  max neighbors/atom: 2000, page size: 100000
  master list distance cutoff = 16.655
  ghost atom cutoff = 16.655
  binsize = 8.3275, bins = 4 4 4
  1 neighbor lists, perpetual/occasional/extra = 1 0 0
  (1) pair lj/cut/coul/long, perpetual
      attributes: half, newton on
      pair build: half/bin/newton
      stencil: half/bin/3d
      bin: standard
Setting up Verlet run ...
  Unit style    : real
  Current step  : 0
  Time step     : 1
Per MPI rank memory allocation (min/avg/max) = 29.12 | 29.12 | 29.12 Mbytes
Step Temp E_pair E_mol TotEng Press 
       0    334.76396     12647.25            0    13045.399    96729.485 
    5000    9443.9624    1803.0707            0    13035.183    75366.449 
Loop time of 340.11 on 1 procs for 5000 steps with 2400 atoms

Performance: 1.270 ns/day, 18.895 hours/ns, 14.701 timesteps/s
100.0% CPU use with 1 MPI tasks x 1 OpenMP threads

MPI task timing breakdown:
Section |  min time  |  avg time  |  max time  |%varavg| %total
---------------------------------------------------------------
Pair    | 282.99     | 282.99     | 282.99     |   0.0 | 83.21
Bond    | 0.0040761  | 0.0040761  | 0.0040761  |   0.0 |  0.00
Kspace  | 8.9995     | 8.9995     | 8.9995     |   0.0 |  2.65
Neigh   | 45.681     | 45.681     | 45.681     |   0.0 | 13.43
Comm    | 1.0182     | 1.0182     | 1.0182     |   0.0 |  0.30
Output  | 3.793e-05  | 3.793e-05  | 3.793e-05  |   0.0 |  0.00
Modify  | 1.286      | 1.286      | 1.286      |   0.0 |  0.38
Other   |            | 0.1286     |            |       |  0.04

Nlocal:        2400.00 ave        2400 max        2400 min
Histogram: 1 0 0 0 0 0 0 0 0 0
Nghost:        19076.0 ave       19076 max       19076 min
Histogram: 1 0 0 0 0 0 0 0 0 0
Neighs:    1.88419e+06 ave 1.88419e+06 max 1.88419e+06 min
Histogram: 1 0 0 0 0 0 0 0 0 0

Total # of neighbors = 1884186
Ave neighs/atom = 785.07750
Ave special neighs/atom = 8.5000000
Neighbor list builds = 431
Dangerous builds = 64
  create bodies CPU = 0.001 seconds
  200 rigid bodies with 2400 atoms
  3.8930170 = max distance from body owner to body atom
PPPM initialization ...
  using 12-bit tables for long-range coulomb (src/kspace.cpp:340)
  G vector (1/distance) = 0.1428774
  grid = 6 6 6
  stencil order = 5
  estimated absolute RMS force accuracy = 0.0078609937
  estimated relative force accuracy = 2.3673149e-05
  using double precision FFTW3
  3d grid and FFT values/proc = 1331 216
Setting up Verlet run ...
  Unit style    : real
  Current step  : 5000
  Time step     : 1
Per MPI rank memory allocation (min/avg/max) = 36.90 | 36.90 | 36.90 Mbytes
Step Temp E_pair E_mol TotEng Press Volume 
    5000    9443.9624    1803.0707            0    13035.183    87481.247    29597.212 
 1005000    334.17198   -1242.8809            0   -845.43569   -194.01388    31417.768 
Loop time of 36693.5 on 1 procs for 1000000 steps with 2400 atoms

Performance: 2.355 ns/day, 10.193 hours/ns, 27.253 timesteps/s
100.0% CPU use with 1 MPI tasks x 1 OpenMP threads

MPI task timing breakdown:
Section |  min time  |  avg time  |  max time  |%varavg| %total
---------------------------------------------------------------
Pair    | 33696      | 33696      | 33696      |   0.0 | 91.83
Bond    | 1.714      | 1.714      | 1.714      |   0.0 |  0.00
Kspace  | 1153.2     | 1153.2     | 1153.2     |   0.0 |  3.14
Neigh   | 1090.4     | 1090.4     | 1090.4     |   0.0 |  2.97
Comm    | 113.52     | 113.52     | 113.52     |   0.0 |  0.31
Output  | 3.0373e-05 | 3.0373e-05 | 3.0373e-05 |   0.0 |  0.00
Modify  | 612.34     | 612.34     | 612.34     |   0.0 |  1.67
Other   |            | 26.59      |            |       |  0.07

Nlocal:        2400.00 ave        2400 max        2400 min
Histogram: 1 0 0 0 0 0 0 0 0 0
Nghost:        18390.0 ave       18390 max       18390 min
Histogram: 1 0 0 0 0 0 0 0 0 0
Neighs:    1.77262e+06 ave 1.77262e+06 max 1.77262e+06 min
Histogram: 1 0 0 0 0 0 0 0 0 0

Total # of neighbors = 1772618
Ave neighs/atom = 738.59083
Ave special neighs/atom = 8.5000000
Neighbor list builds = 16885
Dangerous builds = 2
PPPM initialization ...
  using 12-bit tables for long-range coulomb (src/kspace.cpp:340)
  G vector (1/distance) = 0.14158212
  grid = 6 6 6
  stencil order = 5
  estimated absolute RMS force accuracy = 0.0082597427
  estimated relative force accuracy = 2.487397e-05
  using double precision FFTW3
  3d grid and FFT values/proc = 1331 216
Setting up Verlet run ...
  Unit style    : real
  Current step  : 0
  Time step     : 1
Per MPI rank memory allocation (min/avg/max) = 36.91 | 36.91 | 36.91 Mbytes
Step Temp Press v_dens Volume PotEng KinEng TotEng E_vdwl E_coul E_pair E_bond E_angle E_dihed E_impro E_mol E_long E_tail 
       0    334.17198   -117.10421    825.70948    31417.768   -1242.9263    397.44518   -845.48109   -1480.2689    810.70177   -1242.9263            0            0            0            0            0   -573.35918   -26.757567 
    5000    360.87115   -174.51656    825.47414    31426.725   -1244.1377    429.19966   -814.93805   -1483.4519    812.85047   -1244.1377            0            0            0            0            0   -573.53629   -26.749941 
   10000    327.83963    127.48535    802.67325    32319.438   -1182.2676    389.91384   -792.35372   -1416.9496    808.20142   -1182.2676            0            0            0            0            0   -573.51941   -26.011066 
   15000    322.00888    -285.5655    801.53925    32365.163   -1184.5446    382.97907   -801.56555   -1425.9372    815.08075   -1184.5446            0            0            0            0            0   -573.68816   -25.974318 
   20000    339.77409   -262.91889    801.74895    32356.698    -1193.228      404.108   -789.12001   -1423.7478    804.40575    -1193.228            0            0            0            0            0   -573.88601   -25.981113 
   25000     347.0325   -66.409272    813.79226    31877.851   -1207.3569    412.74075   -794.61615    -1445.852    812.08003   -1207.3569            0            0            0            0            0   -573.58493   -26.371383 
   30000    369.60298   -343.36234    800.07823    32424.265    -1198.525    439.58479   -758.94025   -1429.0576    803.96748    -1198.525            0            0            0            0            0    -573.4349   -25.926973 
   35000    309.85322   -43.528556    798.33115    32495.223   -1182.1775    368.52183    -813.6557   -1414.0292    805.40776   -1182.1775            0            0            0            0            0   -573.55606   -25.870358 
   40000    338.46964    120.65748    811.99424    31948.439   -1192.1986    402.55657   -789.64201   -1430.3882     811.5824   -1192.1986            0            0            0            0            0   -573.39282   -26.313117 
   45000    345.18902    332.20182    815.93061    31794.307   -1205.9077    410.54822   -795.35946   -1443.0958    810.85302   -1205.9077            0            0            0            0            0   -573.66488   -26.440678 
   50000    333.05199    9.0410653    810.89571     31991.72   -1207.3851    396.11312   -811.27203   -1439.6804    805.83833   -1207.3851            0            0            0            0            0   -573.54304   -26.277519 
   55000    338.87342    162.77207    802.67592    32319.331   -1193.8522     403.0368    -790.8154   -1424.5352      804.264   -1193.8522            0            0            0            0            0   -573.58097   -26.011152 
   60000    353.07665    383.52252     817.2918    31741.354    -1209.331    419.92932   -789.40173   -1442.3175    806.57494    -1209.331            0            0            0            0            0   -573.58849   -26.484788 
   65000    332.13624    211.71176    808.25092    32096.405   -1199.6356    395.02399    -804.6116   -1429.9728     804.0877   -1199.6356            0            0            0            0            0   -573.75045   -26.191813 
   70000    339.40887    17.690042     800.6407    32401.486   -1185.5725    403.67363   -781.89884   -1414.2532    802.48912   -1185.5725            0            0            0            0            0   -573.80841     -25.9452 
   75000    347.86193    294.63254    809.84611    32033.183   -1188.5178    413.72723   -774.79056   -1427.9083    812.87422   -1188.5178            0            0            0            0            0   -573.48367   -26.243506 
   80000    347.55945    368.48583    810.62579    32002.373   -1200.5543    413.36748   -787.18682   -1430.2562    803.23406   -1200.5543            0            0            0            0            0   -573.53211   -26.268772 
   85000    363.62133     219.7275    814.55623    31847.953   -1204.4177    432.47056   -771.94717   -1438.0982    807.22116   -1204.4177            0            0            0            0            0   -573.54071    -26.39614 
   90000    352.27146   -189.60238    831.68925    31191.877   -1270.9258    418.97167   -851.95412   -1496.0251    798.46742   -1270.9258            0            0            0            0            0   -573.36811   -26.951345 
   95000    328.24987    13.808572    824.31763    31470.816   -1241.3875    390.40176   -850.98573   -1474.8137    806.94563   -1241.3875            0            0            0            0            0   -573.51942   -26.712464 
  100000    338.08301   -166.82518    804.78492    32234.636   -1196.2965    402.09674   -794.19975   -1431.8241    808.78929   -1196.2965            0            0            0            0            0   -573.26172   -26.079496 
  105000    334.16927    42.114818    808.76844    32075.867   -1197.3177    397.44195   -799.87578   -1436.0677    812.18061   -1197.3177            0            0            0            0            0   -573.43061   -26.208584 
  110000    362.22245    112.78022    799.12537    32462.927    -1167.091    430.80681   -736.28417   -1401.9921    808.25018    -1167.091            0            0            0            0            0   -573.34902   -25.896095 
  115000    334.35577    52.596079    810.32815    32014.127   -1208.0095    397.66377   -810.34578   -1442.0498    807.59843   -1208.0095            0            0            0            0            0   -573.55821   -26.259127 
  120000    350.78537   -140.77846    794.62241    32646.888    -1182.638     417.2042   -765.43376   -1417.2642    808.19416    -1182.638            0            0            0            0            0   -573.56789   -25.750174 
  125000    310.83274   -176.44034    809.40195    32050.761   -1207.2403    369.68681   -837.55344   -1439.3323    805.76705   -1207.2403            0            0            0            0            0   -573.67499   -26.229113 
  130000    365.15345   -637.27087    811.21903    31978.969   -1231.5043    434.29277   -797.21155   -1467.6669    809.66523   -1231.5043            0            0            0            0            0   -573.50262   -26.287996 
  135000    342.52152    17.125546    818.60567    31690.409   -1211.1946    407.37565   -803.81895   -1445.4018    807.83285   -1211.1946            0            0            0            0            0   -573.62565   -26.527364 
  140000    352.78993   -90.864001    801.25514    32376.639   -1194.2923    419.58831   -774.70399   -1430.4209    809.72149   -1194.2923            0            0            0            0            0   -573.59293   -25.965111 
  145000    347.52878   -328.16015    800.61879    32402.373   -1195.3282      413.331   -781.99722   -1425.7292    804.00991   -1195.3282            0            0            0            0            0   -573.60896    -25.94449 
  150000    361.74749   -98.201347    825.49357    31425.985   -1254.2141    430.24192   -823.97221   -1483.7477    803.06518   -1254.2141            0            0            0            0            0   -573.53162   -26.750571 
  155000    351.94427    306.53575    811.07705    31984.567   -1202.7537    418.58253   -784.17119   -1436.1948    806.99743   -1202.7537            0            0            0            0            0   -573.55634   -26.283395 
  160000     338.1834    142.49724     819.2817     31664.26   -1235.8861    402.21613   -833.66997   -1458.1515    795.75345   -1235.8861            0            0            0            0            0   -573.48803   -26.549272 
  165000    356.66891     44.67488    804.52344    32245.112   -1188.0583    424.20175   -763.85653   -1418.6002    804.16512   -1188.0583            0            0            0            0            0   -573.62321   -26.071022 
  170000    352.30193    23.867266    794.12717    32667.247   -1154.2229    419.00791     -735.215   -1393.7094    812.59083   -1154.2229            0            0            0            0            0   -573.10435   -25.734125 
  175000    352.07845    302.50936    808.30157    32094.394   -1195.2601    418.74211   -776.51799   -1427.3574    805.70434   -1195.2601            0            0            0            0            0   -573.60706   -26.193454 
  180000    337.30005     157.3774    806.63313    32160.778   -1189.3189    401.16552   -788.15341   -1425.9088    810.22066   -1189.3189            0            0            0            0            0   -573.63084   -26.139388 
  185000    353.07077   -362.88539    820.67463    31610.516   -1246.2014    419.92232    -826.2791   -1473.7693    800.93368   -1246.2014            0            0            0            0            0   -573.36585    -26.59441 
  190000    326.43353   -380.63669    816.01556    31790.997   -1236.9476     388.2415    -848.7061   -1473.3391     810.0513   -1236.9476            0            0            0            0            0   -573.65985   -26.443431 
  195000    366.39055     375.8982    808.59537    32082.732    -1182.502    435.76411    -746.7379   -1417.9345    808.84751    -1182.502            0            0            0            0            0   -573.41503   -26.202975 
  200000    353.39824    350.52292    811.85542    31953.902    -1201.478     420.3118   -781.16618   -1431.2892    803.23861    -1201.478            0            0            0            0            0   -573.42742   -26.308619 
  205000    357.66157    -167.3079    812.92591    31911.824   -1216.0373    425.38236   -790.65497   -1452.9342    810.56326   -1216.0373            0            0            0            0            0   -573.66639   -26.343309 
  210000    344.95187    226.94504    803.28105    32294.984     -1186.27    410.26617   -776.00385   -1417.2884    804.49678     -1186.27            0            0            0            0            0   -573.47836   -26.030762 
  215000     364.1377    350.86394    810.92131     31990.71   -1192.7763     433.0847   -759.69161   -1427.7402    808.57123   -1192.7763            0            0            0            0            0   -573.60737   -26.278349 
  220000      354.734    239.90558    823.24165    31511.949   -1240.5647    421.90048   -818.66427   -1468.2138    801.20486   -1240.5647            0            0            0            0            0   -573.55581   -26.677596 
  225000    338.94727   -202.19218    815.79852    31799.456    -1228.795    403.12463   -825.67035    -1464.538    809.23736    -1228.795            0            0            0            0            0   -573.49439   -26.436397 
  230000     333.6395    63.023331    817.75683    31723.304   -1228.4012    396.81187   -831.58931   -1452.6318    797.95108   -1228.4012            0            0            0            0            0    -573.7205   -26.499857 
  235000    347.21336    191.96033    808.70915    32078.218   -1185.8783    412.95586   -772.92245   -1427.5277    815.01293   -1185.8783            0            0            0            0            0   -573.36354   -26.206662 
  240000    344.69368   -130.80872    827.86275     31336.05   -1248.4303    409.95908   -838.47126   -1485.3706     810.5774   -1248.4303            0            0            0            0            0   -573.63719   -26.827345 
  245000    340.87477    152.59867    807.67308    32119.368   -1195.1495    405.41709   -789.73238   -1429.9471     808.3274   -1195.1495            0            0            0            0            0   -573.52974   -26.173088 
  250000    344.27888   -209.25004    805.40217    32209.931    -1197.302    409.46575   -787.83628   -1431.8396    807.87413    -1197.302            0            0            0            0            0   -573.33656   -26.099498 
  255000    335.91132    95.631496    787.15485    32956.601   -1148.4855    399.51384   -748.97162   -1381.8716    806.76864   -1148.4855            0            0            0            0            0   -573.38252   -25.508184 
  260000    333.82235   -104.38467    806.72301    32157.194   -1211.3423    397.02935   -814.31296    -1440.683    802.81037   -1211.3423            0            0            0            0            0   -573.46969     -26.1423 
  265000    377.05693    -208.8335    813.29916    31897.179   -1221.9847     448.4501    -773.5346    -1455.097    806.50422   -1221.9847            0            0            0            0            0   -573.39195   -26.355404 
  270000    368.08808    316.58995    817.74607    31723.722   -1218.3209    437.78305   -780.53784   -1450.3523    805.72737   -1218.3209            0            0            0            0            0   -573.69591   -26.499509 
  275000    300.71433   -430.92329     811.4687     31969.13   -1226.8752    357.65254   -869.22263    -1461.237      807.914   -1226.8752            0            0            0            0            0   -573.55221   -26.296087 
  280000    336.54439    491.09557    801.77659    32355.583   -1152.8032    400.26678   -752.53639   -1383.9491    804.43934   -1152.8032            0            0            0            0            0   -573.29338   -25.982009 
  285000    340.44494   -45.962852    814.58731    31846.738   -1229.5452    404.90587   -824.63937   -1461.3786    805.06494   -1229.5452            0            0            0            0            0   -573.23159   -26.397147 
  290000    339.45381   -284.68352    816.78216     31761.16   -1229.9021    403.72709   -826.17504   -1460.9153    804.63405   -1229.9021            0            0            0            0            0   -573.62088   -26.468273 
  295000    333.70901    312.51152    797.63907    32523.418   -1157.7964    396.89454   -760.90184   -1386.2209    802.09649   -1157.7964            0            0            0            0            0   -573.67196    -25.84793 
  300000     366.4014   -40.932529    796.25676    32579.879   -1182.1771    435.77702   -746.40011   -1414.5288    805.81924   -1182.1771            0            0            0            0            0   -573.46758   -25.803136 
  305000    348.55603    104.87932    821.55615    31576.599   -1232.7237    414.55275     -818.171    -1467.297    808.39073   -1232.7237            0            0            0            0            0   -573.81747   -26.622976 
  310000    320.66085   -247.33498    803.99558    32266.283   -1203.5702    381.37581   -822.19441   -1442.6996    812.61683   -1203.5702            0            0            0            0            0   -573.48741   -26.053917 
  315000    344.50163    -367.4985    827.93272    31333.402   -1272.7285    409.73068   -862.99779    -1500.972    801.85946   -1272.7285            0            0            0            0            0    -573.6159   -26.829613 
  320000    345.11733    141.73097      803.526    32285.139   -1186.5788    410.46295   -776.11585   -1415.6273    802.79198   -1186.5788            0            0            0            0            0   -573.74346     -26.0387 
  325000    346.89087    465.32043    815.27331    31819.941   -1199.1079     412.5723   -786.53563   -1427.3126    801.96703   -1199.1079            0            0            0            0            0   -573.76233   -26.419377 
  330000    340.06722      231.858    820.48687     31617.75   -1220.6174    404.45663   -816.16073   -1456.0349    808.79573   -1220.6174            0            0            0            0            0    -573.3782   -26.588326 
  335000    349.15979   -61.425931    784.03633    33087.687   -1137.7631    415.27083   -722.49225   -1372.8615    808.58388   -1137.7631            0            0            0            0            0   -573.48548   -25.407126 
  340000    345.32587   -361.16425     800.7884     32395.51   -1185.4302    410.71098   -774.71926   -1420.6653    808.59657   -1185.4302            0            0            0            0            0   -573.36152   -25.949986 
  345000    335.50769    112.39721    815.10662    31826.448   -1213.4572     399.0338   -814.42335   -1443.7164    803.94121   -1213.4572            0            0            0            0            0   -573.68196   -26.413976 
  350000    349.63371   -61.700536    829.25653    31283.382   -1263.4057    415.83448   -847.57127   -1491.9711    802.07054   -1263.4057            0            0            0            0            0   -573.50518   -26.872511 
  355000    345.29292    8.7409954    827.49782    31349.869   -1257.5281    410.67179   -846.85626   -1485.3474    801.42991   -1257.5281            0            0            0            0            0   -573.61051    -26.81552 
  360000    338.92184   -401.90926    820.46081    31618.754   -1236.9355    403.09439   -833.84113   -1466.6404    803.16143   -1236.9355            0            0            0            0            0   -573.45655   -26.587481 
  365000      332.464    13.166084    817.70355    31725.371   -1220.6464    395.41381   -825.23256   -1455.3558    808.33886   -1220.6464            0            0            0            0            0    -573.6294   -26.498131 
  370000    334.90148   -33.736173    801.46403    32368.201   -1185.3289     398.3128   -787.01611   -1414.6263    803.03188   -1185.3289            0            0            0            0            0   -573.73446    -25.97188 
  375000    329.56931    -457.7436    794.53557    32650.456   -1185.9155    391.97102   -793.94451   -1420.0256    807.73211   -1185.9155            0            0            0            0            0   -573.62199    -25.74736 
  380000    357.53921   -25.346354    812.40316    31932.358   -1214.6415    425.23683   -789.40464   -1444.7896     803.5989   -1214.6415            0            0            0            0            0   -573.45079   -26.326369 
  385000    319.14395   -530.55558    791.12337    32791.281   -1171.5951    379.57169   -792.02338   -1411.0275    813.02276   -1171.5951            0            0            0            0            0   -573.59029   -25.636785 
  390000    325.96859    -244.1029    806.62798    32160.983   -1209.4369    387.68853   -821.74839   -1443.3259    807.56779   -1209.4369            0            0            0            0            0   -573.67879   -26.139221 
  395000    366.56714    181.55743    798.36819    32493.715    -1163.965    435.97414   -727.99081   -1400.7697    810.39283    -1163.965            0            0            0            0            0   -573.58808   -25.871558 
  400000     327.4885   -185.33399    804.68136    32238.784   -1197.8602    389.49622   -808.36394   -1428.4734    804.21406   -1197.8602            0            0            0            0            0   -573.60081    -26.07614 
  405000    357.41347   -243.04593    802.49014    32326.813   -1204.6633    425.08729   -779.57604   -1437.6289    806.51369   -1204.6633            0            0            0            0            0   -573.54808   -26.005132 
  410000    324.07034    123.46341    812.51912    31927.801   -1198.6132    385.43086   -813.18237   -1432.2473    807.09563   -1198.6132            0            0            0            0            0   -573.46153   -26.330126 
  415000    356.81104    116.42402    799.93939    32429.893    -1177.524    424.37079   -753.15324   -1414.7759    811.10766    -1177.524            0            0            0            0            0   -573.85583   -25.922473 
  420000    342.86171    316.28213    819.31073    31663.138   -1212.4506    407.78025    -804.6704   -1443.0743    804.13003   -1212.4506            0            0            0            0            0   -573.50634   -26.550212 
  425000    339.79972   -73.572525    816.98414    31753.308   -1230.9193    404.13849   -826.78077   -1464.6691    807.19788   -1230.9193            0            0            0            0            0   -573.44802   -26.474818 
  430000    363.24768   -325.49877    808.68497    32079.178   -1216.2622    432.02617   -784.23599    -1447.617    804.88678   -1216.2622            0            0            0            0            0   -573.53198   -26.205879 
  435000    328.80021    12.079948    799.16902    32461.154   -1182.3122     391.0563    -791.2559   -1414.7248    805.97999   -1182.3122            0            0            0            0            0    -573.5674   -25.897509 
  440000    350.99399    436.36422    836.59469    31008.981   -1257.6215    417.45232   -840.16922    -1485.697    801.43816   -1257.6215            0            0            0            0            0   -573.36266   -27.110309 
  445000    321.56637   -207.40731    799.29074    32456.211   -1187.3214    382.45278    -804.8686   -1422.7819    808.91918   -1187.3214            0            0            0            0            0   -573.45863   -25.901453 
  450000    348.00002   -374.83773    808.45536    32088.288   -1203.9976    413.89146   -790.10618   -1444.9622    814.52578   -1203.9976            0            0            0            0            0    -573.5612   -26.198438 
  455000    341.91668     235.6248    809.32877    32053.659   -1179.3103    406.65628   -772.65398   -1419.5745    813.92653   -1179.3103            0            0            0            0            0   -573.66233   -26.226741 
  460000     338.2025    55.624685    793.68887    32685.287   -1153.5739    402.23884   -751.33505   -1393.9628    814.08412   -1153.5739            0            0            0            0            0   -573.69521   -25.719922 
  465000    345.94986   -74.041722    799.49027    32448.111    -1170.946    411.45311   -759.49287    -1410.742    813.41732    -1170.946            0            0            0            0            0   -573.62128   -25.907919 
  470000    312.23195   -753.34954    802.83248    32313.028    -1217.033    371.35095    -845.6821   -1447.8946    804.17943    -1217.033            0            0            0            0            0   -573.31789   -26.016225 
  475000     342.0544    544.64805    824.69487     31456.42   -1227.3549    406.82008    -820.5348    -1452.849    798.98188   -1227.3549            0            0            0            0            0   -573.48779   -26.724688 
  480000    340.81238    201.10195    820.46234    31618.695   -1221.9937    405.34289   -816.65077   -1453.0529    804.66112   -1221.9937            0            0            0            0            0   -573.60185   -26.587531 
  485000    325.22312   -403.73508    803.64221     32280.47    -1213.298    386.80191   -826.49613   -1444.0305    804.04947    -1213.298            0            0            0            0            0   -573.31698   -26.042465 
  490000    320.16886   -187.70908    800.74054    32397.446   -1184.4566    380.79066    -803.6659   -1420.7534    809.85131   -1184.4566            0            0            0            0            0   -573.55444   -25.948435 
  495000    315.41407   -113.11602    813.32115    31896.316   -1211.7986    375.13558   -836.66299   -1445.7358    807.17022   -1211.7986            0            0            0            0            0   -573.23298   -26.356117 
  500000    359.12077   -24.209123    801.46513    32368.156   -1176.5759    427.11785   -749.45808   -1419.0505    815.95525   -1176.5759            0            0            0            0            0   -573.48065   -25.971916 
  505000     327.5609    563.04556    818.48832    31694.953   -1204.0033    389.58233   -814.42098   -1438.4015    807.88503   -1204.0033            0            0            0            0            0   -573.48684   -26.523562 
  510000    335.91131    216.39721    800.96693    32388.289   -1169.7527    399.51384   -770.23885   -1406.5323    810.45695   -1169.7527            0            0            0            0            0   -573.67731   -25.955771 
  515000    338.00974    260.06226    814.92476    31833.551   -1209.6553    402.00959   -807.64567   -1440.4784     804.5687   -1209.6553            0            0            0            0            0   -573.74557   -26.408083 
  520000    365.35166    173.89632    800.86213    32392.528   -1179.7903    434.52852   -745.26178   -1418.5959    812.42682   -1179.7903            0            0            0            0            0    -573.6212   -25.952375 
  525000    339.00126    243.51413    809.19186    32059.083   -1197.8249    403.18884   -794.63606   -1427.0394       802.95   -1197.8249            0            0            0            0            0   -573.73549   -26.222305 
  530000    336.10695    56.439951    801.26994    32376.041   -1181.4955    399.74652     -781.749   -1411.9063    804.23516   -1181.4955            0            0            0            0            0   -573.82439    -25.96559 
  535000    354.33135  -0.98701817    817.43709    31735.713   -1207.1005    421.42159   -785.67894   -1452.5787    818.79009   -1207.1005            0            0            0            0            0   -573.31196   -26.489496 
  540000    333.80615   -49.101268    815.69612    31803.447   -1218.1591    397.01008   -821.14906   -1448.8604    804.36803   -1218.1591            0            0            0            0            0   -573.66675   -26.433079 
  545000     355.2629   -18.594413    810.15335    32021.035    -1209.988    422.52952   -787.45845   -1441.1502    804.76111    -1209.988            0            0            0            0            0   -573.59889   -26.253463 
  550000    341.64138    -690.1201    809.42747    32049.751   -1221.9354    406.32886   -815.60659   -1461.5862     812.9883   -1221.9354            0            0            0            0            0   -573.33751    -26.22994 
  555000    351.74805    242.90002    821.67211    31572.142   -1221.7367    418.34915   -803.38756   -1457.9822    809.70589   -1221.7367            0            0            0            0            0   -573.46041   -26.626734 
  560000    356.21166   -60.640981    815.01722    31829.939   -1225.9396    423.65792   -802.28164   -1448.8748    796.62215   -1225.9396            0            0            0            0            0   -573.68696   -26.411079 
  565000    349.24288   -44.202858    820.88092    31602.572   -1237.9007    415.36965   -822.53109   -1469.0354    804.69228   -1237.9007            0            0            0            0            0   -573.55763   -26.601095 
  570000    350.70931    270.98661    809.77768     32035.89   -1188.3266    417.11373   -771.21285   -1435.0289    820.00753   -1188.3266            0            0            0            0            0   -573.30519   -26.241289 
  575000    329.69317   -102.22623    822.03841    31558.074   -1237.5618    392.11833    -845.4435   -1476.7242    812.62816   -1237.5618            0            0            0            0            0   -573.46578   -26.638604 
  580000    340.17166   -585.94697    801.22727    32377.765   -1198.1929    404.58085   -793.61204   -1437.0215    812.36551   -1198.1929            0            0            0            0            0   -573.53694   -25.964208 
  585000    363.89888    173.54754    834.70636    31079.131   -1266.9304    432.80067   -834.12969   -1491.9498    798.55606   -1266.9304            0            0            0            0            0   -573.53666   -27.049116 
  590000    354.27005   -56.130777    798.87156    32473.241   -1191.1218    421.34868   -769.77313   -1415.4216    797.80363   -1191.1218            0            0            0            0            0   -573.50382    -25.88787 
  595000    342.81256   -89.767738    810.75453    31997.291   -1209.2532     407.7218   -801.53138   -1440.1284    804.57328   -1209.2532            0            0            0            0            0   -573.69807   -26.272944 
  600000    330.46984    9.1908329    799.84044    32433.905   -1184.9829    393.04206   -791.94081    -1416.699    805.29686   -1184.9829            0            0            0            0            0   -573.58072   -25.919267 
  605000    335.62478    312.64668    816.68147    31765.076    -1209.145    399.17305   -809.97195   -1444.9362    809.45798    -1209.145            0            0            0            0            0   -573.66676    -26.46501 
  610000    350.52516    522.72472    848.20879     30584.39   -1293.8064    416.89472    -876.9117   -1518.2399    797.84626   -1293.8064            0            0            0            0            0   -573.41274    -27.48667 
  615000    348.34141     16.79942    814.73629    31840.915   -1210.0938    414.29749    -795.7963   -1442.3207    805.94783   -1210.0938            0            0            0            0            0   -573.72096   -26.401975 
  620000     368.7864    215.15662    824.04062    31481.395   -1231.4647     438.6136   -792.85109   -1468.1379    810.37904   -1231.4647            0            0            0            0            0   -573.70584   -26.703487 
  625000    320.63463   -218.31315    788.45008    32902.462   -1155.7928    381.34463   -774.44821   -1394.1694    811.77778   -1155.7928            0            0            0            0            0   -573.40126   -25.550156 
  630000    345.91256   -95.818385    788.33164    32907.405   -1153.1876    411.40876   -741.77883   -1396.7203    817.21481   -1153.1876            0            0            0            0            0   -573.68207   -25.546318 
  635000    351.60048    147.98388    800.63136    32401.864   -1187.3265    418.17365   -769.15281    -1421.893    807.95241   -1187.3265            0            0            0            0            0   -573.38586   -25.944897 
  640000    322.32732    6.8552207    805.24732    32216.125   -1196.6018    383.35781   -813.24398   -1432.4222     809.4562   -1196.6018            0            0            0            0            0   -573.63578    -26.09448 
  645000    320.84964    -43.79476    817.16038    31746.459   -1221.0218    381.60034   -839.42146   -1453.4766    805.86654   -1221.0218            0            0            0            0            0   -573.41176   -26.480529 
  650000    344.71179    223.15635    815.80607    31799.161   -1207.2898    409.98062   -797.30919   -1443.7737    810.04788   -1207.2898            0            0            0            0            0   -573.56397   -26.436642 
  655000    346.27605   -29.273237    799.00552    32467.796   -1191.1394    411.84107    -779.2983   -1420.1244    802.47409   -1191.1394            0            0            0            0            0   -573.48902   -25.892211 
  660000    345.45104    64.299572    805.35293    32211.901   -1174.8158    410.85985   -763.95599   -1417.0215     815.6646   -1174.8158            0            0            0            0            0   -573.45897   -26.097902 
  665000    345.10243   -4.2332594    808.48205    32087.229    -1202.719    410.44524   -792.27377   -1431.5915     802.5473    -1202.719            0            0            0            0            0   -573.67483   -26.199303 
  670000    345.53185   -239.26908    801.62369    32361.754   -1191.2535    410.95596   -780.29756    -1427.381    809.59575   -1191.2535            0            0            0            0            0   -573.46826   -25.977054 
  675000    331.80598    203.92126    821.90436    31563.221   -1225.1312    394.63119   -830.49997   -1459.2295    807.71483   -1225.1312            0            0            0            0            0   -573.61644    -26.63426 
  680000     323.5181   -173.85705    813.96843    31870.952   -1217.6744    384.77405   -832.90037   -1455.6874    811.57467   -1217.6744            0            0            0            0            0    -573.5617   -26.377092 
  685000    325.06814    108.26316    809.83804    32033.502   -1202.5537    386.61758   -815.93614   -1438.1162    809.28313   -1202.5537            0            0            0            0            0   -573.72068   -26.243245 
  690000    348.60202   -52.222649    815.87024     31796.66    -1222.842    414.60745   -808.23455   -1455.0601    805.73351    -1222.842            0            0            0            0            0   -573.51539   -26.438721 
  695000    359.51598   -122.25318    800.76444    32396.479   -1186.0357    427.58789   -758.44776   -1418.7917    806.18264   -1186.0357            0            0            0            0            0   -573.42662   -25.949209 
  700000    337.98019   -170.89809    813.94616    31871.824   -1225.9011    401.97444   -823.92663   -1449.5782    797.20308   -1225.9011            0            0            0            0            0   -573.52592    -26.37637 
  705000    351.76529    331.28805    816.14462     31785.97   -1203.1213    418.36966    -784.7516   -1438.9954    809.53264   -1203.1213            0            0            0            0            0   -573.65846   -26.447613 
  710000    337.45617    298.45963    826.97638    31369.637   -1242.2445    401.35121   -840.89329   -1475.0163    806.46226   -1242.2445            0            0            0            0            0   -573.69048   -26.798622 
  715000    346.88029   -462.55957    812.37492    31933.468   -1220.9922    412.55971   -808.43248   -1454.9891    807.60342   -1220.9922            0            0            0            0            0   -573.60649   -26.325454 
  720000    359.69419    550.77607    816.61092     31767.82   -1202.6048    427.79984   -774.80496   -1434.1659    805.02622   -1202.6048            0            0            0            0            0    -573.4651   -26.462724 
  725000    355.90981    274.45237     829.7626    31264.302   -1255.7075    423.29892    -832.4086   -1482.8638    800.73978   -1255.7075            0            0            0            0            0   -573.58353   -26.888911 
  730000    345.27048   -58.919845    811.20883    31979.372   -1208.8776    410.64511   -798.23254   -1441.2054    806.09772   -1208.8776            0            0            0            0            0   -573.76992   -26.287666 
  735000    350.12259   -158.87627    804.81768    32233.324   -1197.1207    416.41592   -780.70482    -1432.428    808.93232   -1197.1207            0            0            0            0            0   -573.62503   -26.080557 
  740000    358.34289    197.10893    803.45485    32287.998   -1186.6211    426.19268   -760.42844   -1409.4069    796.41258   -1186.6211            0            0            0            0            0   -573.62683   -26.036394 
  745000    366.90481    20.599804    813.47379    31890.331    -1211.817    436.37574    -775.4413   -1445.3873     807.1768    -1211.817            0            0            0            0            0    -573.6065   -26.361063 
  750000    341.70763    145.27918    807.09355    32142.431   -1190.7555    406.40765   -784.34787   -1432.9413    815.76676   -1190.7555            0            0            0            0            0   -573.58094   -26.154308 
  755000    324.75228   -253.05318    807.48054    32127.026   -1194.8085    386.24192   -808.56662   -1426.7934    805.67714   -1194.8085            0            0            0            0            0   -573.69232   -26.166848 
  760000    330.10813   -371.73786    812.33372    31935.088   -1216.0352    392.61186   -823.42339   -1450.9659      808.697   -1216.0352            0            0            0            0            0   -573.76633   -26.324119 
  765000    329.32018    282.64056    813.00749    31908.622   -1214.0325    391.67472   -822.35781   -1445.0973    804.46097   -1214.0325            0            0            0            0            0   -573.39623   -26.345952 
  770000    325.89747   -140.43504    789.84106    32844.518   -1158.0292    387.60394   -770.42522   -1397.6355    813.22491   -1158.0292            0            0            0            0            0   -573.61857   -25.595232 
  775000    363.99977   -86.503139     812.3276    31935.328   -1206.7705    432.92065   -773.84982   -1443.4235    810.64062   -1206.7705            0            0            0            0            0   -573.98756    -26.32392 
  780000    328.48959    129.00069    798.05826    32506.334   -1167.6054    390.68687   -776.91856   -1401.7661    807.53516   -1167.6054            0            0            0            0            0   -573.37447   -25.861514 
  785000     348.4769    248.81219    823.25905    31511.283   -1225.6213    414.45863   -811.16269   -1463.1592    811.04988   -1225.6213            0            0            0            0            0   -573.51198    -26.67816 
  790000     341.1795   -190.28256    803.04529    32304.465   -1186.7326    405.77952   -780.95306    -1420.064    807.09255   -1186.7326            0            0            0            0            0   -573.76116   -26.023122 
  795000    361.91153   -224.72857    789.58703    32855.085   -1173.9031    430.43702   -743.46611   -1403.3232    803.19652   -1173.9031            0            0            0            0            0   -573.77644   -25.586999 
  800000     320.4688   -132.20016    792.55931    32731.871   -1162.6298    381.14739   -781.48244   -1397.1181    808.14744   -1162.6298            0            0            0            0            0   -573.65918   -25.683318 
  805000    352.46002    136.03835    816.31844    31779.202   -1225.1929    419.19593   -805.99697   -1450.7284    799.38016   -1225.1929            0            0            0            0            0   -573.84471   -26.453245 
  810000     350.8641   -541.65494    806.23648      32176.6   -1219.2902    417.29784   -801.99234   -1448.2558    802.64617   -1219.2902            0            0            0            0            0   -573.68057   -26.126534 
  815000    335.74652    41.188094    817.77091    31722.758   -1232.5625    399.31784   -833.24464   -1463.0751    804.08218   -1232.5625            0            0            0            0            0   -573.56957   -26.500314 
  820000    366.54171   -180.55815    814.00779    31869.411   -1209.6983    435.94389   -773.75437    -1448.829     812.7848   -1209.6983            0            0            0            0            0   -573.65411   -26.378368 
  825000    360.50503    391.17163     814.5894    31846.656   -1206.5939    428.76421    -777.8297    -1443.002    810.03961   -1206.5939            0            0            0            0            0   -573.63156   -26.397215 
  830000    335.38737   -345.09796    801.22755    32377.754   -1182.2347    398.89069   -783.34403     -1423.27     814.8129   -1182.2347            0            0            0            0            0   -573.77761   -25.964217 
  835000    340.96001   -86.646299    807.51211     32125.77   -1203.5201    405.51847   -798.00162   -1437.7032    807.98976   -1203.5201            0            0            0            0            0    -573.8066   -26.167871 
  840000    336.23313    -150.1522    815.72061    31802.493   -1224.5731    399.89659   -824.67655   -1457.1364    805.80988   -1224.5731            0            0            0            0            0   -573.24664   -26.433872 
  845000    343.55493    -159.4204    786.55096    32981.904   -1160.8971    408.60472   -752.29243   -1387.8397    800.57749   -1160.8971            0            0            0            0            0   -573.63489   -25.488614 
  850000    357.83803   -245.72423    805.31441    32213.441    -1201.598    425.59223    -776.0058   -1439.9617    812.10302    -1201.598            0            0            0            0            0   -573.73938   -26.096654 
  855000    337.74922   -153.93911    805.69767    32198.118   -1198.0585    401.69974   -796.35875   -1427.3418     802.9143   -1198.0585            0            0            0            0            0   -573.63096   -26.109074 
  860000    333.63778    -326.5785     794.3477    32658.178   -1169.5696    396.80983   -772.75978   -1406.0303    810.17122   -1169.5696            0            0            0            0            0   -573.71052   -25.741272 
  865000    320.88122    446.23938    819.71226    31647.628   -1214.5397     381.6379   -832.90176   -1452.3006    811.33927   -1214.5397            0            0            0            0            0   -573.57832   -26.563224 
  870000    316.59223    31.401287    805.97775    32186.929   -1195.2704    376.53682    -818.7336   -1437.6334    815.56814   -1195.2704            0            0            0            0            0   -573.20512    -26.11815 
  875000     346.1599   -193.56461     800.6372    32401.628   -1191.4415    411.70293    -779.7386   -1425.3941    807.35956   -1191.4415            0            0            0            0            0   -573.40699   -25.945086 
  880000    323.05898   -188.56626    789.82985    32844.984   -1160.7755    384.22801    -776.5475   -1388.4441    801.21028   -1160.7755            0            0            0            0            0   -573.54165   -25.594868 
  885000    357.48959    423.33151    839.43482    30904.065   -1286.1029    425.17782   -860.92503   -1511.0728    798.70062   -1286.1029            0            0            0            0            0   -573.73063   -27.202345 
  890000    327.53546    -297.7796    816.16823    31785.051   -1232.7332    389.55208   -843.18108   -1460.8222     801.6194   -1232.7332            0            0            0            0            0   -573.53039   -26.448378 
  895000    329.32937   -669.22696    824.11364    31478.606   -1273.1057    391.68565   -881.42008   -1509.0994    809.47239   -1273.1057            0            0            0            0            0    -573.4787   -26.705853 
  900000    341.50422    52.005198    826.83864    31374.863   -1249.9772    406.16573   -843.81144   -1479.0764    802.75154   -1249.9772            0            0            0            0            0   -573.65231   -26.794158 
  905000     342.4775   -191.48064    810.33185    32013.981   -1209.8356    407.32329    -802.5123   -1444.3346    808.28525   -1209.8356            0            0            0            0            0   -573.78624   -26.259247 
  910000    327.61353    -147.2088    797.06546    32546.823   -1178.4716    389.64493   -788.82669   -1412.3367    807.67207   -1178.4716            0            0            0            0            0   -573.80701   -25.829342 
  915000    341.61288   -324.16415     796.4313    32572.739   -1192.0758    406.29496   -785.78088   -1427.3047    808.79708   -1192.0758            0            0            0            0            0   -573.56825   -25.808792 
  920000    358.55479   -298.09579    807.08868    32142.625   -1218.0464     426.4447   -791.60167   -1450.2588    805.71319   -1218.0464            0            0            0            0            0   -573.50071    -26.15415 
  925000    354.43324    100.77926    805.37961    32210.833   -1195.7254    421.54276   -774.18267   -1422.1458    800.02584   -1195.7254            0            0            0            0            0   -573.60542   -26.098767 
  930000    322.41705    147.56859    805.51472    32205.431   -1185.6972    383.46453   -802.23271   -1417.1796    805.18213   -1185.6972            0            0            0            0            0   -573.69977   -26.103145 
  935000    346.18193    251.64847    805.39511    32210.214   -1183.4637    411.72912    -771.7346   -1415.9742     806.3066   -1183.4637            0            0            0            0            0   -573.79614   -26.099269 
  940000     359.1092   -185.29101     814.4043    31853.894   -1226.4536    427.10409   -799.34952    -1458.241    805.24423   -1226.4536            0            0            0            0            0   -573.45679   -26.391217 
  945000    357.57719   -199.12581    804.53965    32244.462   -1190.1343      425.282   -764.85225   -1423.2551    806.83918   -1190.1343            0            0            0            0            0   -573.71832   -26.071548 
  950000    348.48568    2.5501496    799.48235    32448.432   -1174.1302    414.46907    -759.6611   -1407.1156    806.51947   -1174.1302            0            0            0            0            0   -573.53404   -25.907663 
  955000     367.3513    16.155459     809.3143    32054.232   -1213.3157    436.90678   -776.40895    -1443.757     804.1227   -1213.3157            0            0            0            0            0   -573.68143   -26.226273 
  960000    360.26991    221.20123     813.6511    31883.382   -1205.8896    428.48457   -777.40502   -1433.7553    801.19215   -1205.8896            0            0            0            0            0    -573.3264   -26.366809 
  965000    321.39778   -158.69399    816.03613    31790.196   -1214.0135    382.25227   -831.76124   -1460.1061    819.38501   -1214.0135            0            0            0            0            0   -573.29247   -26.444097 
  970000    324.96417   -51.518207    810.31122    32014.796    -1203.936    386.49393   -817.44211    -1443.799    813.65908    -1203.936            0            0            0            0            0   -573.79611   -26.258578 
  975000    326.24023   -295.03996    804.88825    32230.497   -1208.7675    388.01161   -820.75585   -1442.6577    807.32909   -1208.7675            0            0            0            0            0   -573.43886   -26.082844 
  980000    330.09751   -292.51324    823.97847     31483.77   -1245.4157    392.59924   -852.81649   -1477.9946    805.91605   -1245.4157            0            0            0            0            0   -573.33722   -26.701473 
  985000    339.59916   -33.640699    807.86882    32111.585   -1200.1684    403.89996   -796.26849   -1430.3264    803.69969   -1200.1684            0            0            0            0            0   -573.54175   -26.179431 
  990000    341.83555    105.47816    795.30208    32618.987   -1168.0288    406.55979   -761.46897    -1401.885     807.3317   -1168.0288            0            0            0            0            0   -573.47549   -25.772199 
  995000    337.21011   -189.34386    806.46219    32167.594   -1197.9355    401.05855   -796.87695   -1428.3524    804.09771   -1197.9355            0            0            0            0            0   -573.68085   -26.133848 
 1000000    343.98471    20.912316    815.76823    31800.636   -1200.3621    409.11588   -791.24622   -1441.2899    814.62209   -1200.3621            0            0            0            0            0   -573.69427   -26.435416 
 1005000    342.50225    31.427432     810.3718    32012.403   -1203.4214    407.35273    -796.0687   -1439.6793    809.94457   -1203.4214            0            0            0            0            0   -573.68666   -26.260541 
 1010000    322.02693    83.179965      801.182    32379.595   -1182.2964    383.00054   -799.29588   -1412.2049    803.34039   -1182.2964            0            0            0            0            0   -573.43193   -25.962741 
 1015000    335.63538   -486.02916    774.63006    33489.468   -1139.3408    399.18567   -740.15514   -1381.5135    815.60784   -1139.3408            0            0            0            0            0   -573.43514   -25.102311 
 1020000    331.35513    269.17059    797.75011    32518.891   -1165.6385    394.09497   -771.54349   -1398.4265    805.88428   -1165.6385            0            0            0            0            0   -573.09619   -25.851529 
 1025000    333.55709    350.89916    809.89369    32031.301   -1199.1107    396.71386   -802.39683   -1434.2378    808.79521   -1199.1107            0            0            0            0            0   -573.66809   -26.245048 
 1030000    360.02684     -278.826    779.24545    33291.113   -1122.7799    428.19548   -694.58438   -1368.4813      819.325   -1122.7799            0            0            0            0            0   -573.62356   -25.251875 
 1035000    361.89601   -98.341707    796.69147    32562.102   -1176.8003    430.41856   -746.38172   -1414.2425    810.84575   -1176.8003            0            0            0            0            0   -573.40348   -25.817223 
 1040000    345.92234    119.43417    830.58039    31233.519   -1257.0913    411.42038   -845.67096   -1488.0519    804.55571   -1257.0913            0            0            0            0            0   -573.59513   -26.915412 
 1045000     347.1975    250.86748    797.63357    32523.642   -1171.4887    412.93699   -758.55173   -1402.8283    804.78003   -1171.4887            0            0            0            0            0   -573.44046   -25.847752 
 1050000    340.06388    43.370805    810.17433    32020.206   -1206.8734    404.45267   -802.42068   -1442.9684     809.4349   -1206.8734            0            0            0            0            0   -573.33984   -26.254142 
 1055000    380.85651    466.39496    800.20579    32419.096   -1161.2191     452.9691      -708.25   -1389.9083    802.25229   -1161.2191            0            0            0            0            0   -573.56306   -25.931106 
 1060000    326.07214   -65.138526    801.89711     32350.72   -1180.8867    387.81169   -793.07504   -1420.3714    812.72929   -1180.8867            0            0            0            0            0   -573.24459   -25.985914 
 1065000    351.65682    -258.5774    785.79639    33013.576   -1160.7152    418.24065   -742.47456   -1398.1445    811.04784   -1160.7152            0            0            0            0            0   -573.61853   -25.464162 
 1070000    356.94961    539.10129    822.69375    31532.935   -1226.4155    424.53559   -801.87988   -1450.5244    797.86017   -1226.4155            0            0            0            0            0   -573.75125   -26.659841 
 1075000    355.35764   -212.02199     807.2944    32134.434   -1211.2913     422.6422   -788.64907   -1439.8893    802.33897   -1211.2913            0            0            0            0            0    -573.7409   -26.160817 
 1080000    343.84726     149.5668    820.50248    31617.148   -1231.9948    408.95241   -823.04243   -1457.0757    798.47209   -1231.9948            0            0            0            0            0   -573.39118   -26.588832 
 1085000    365.71989    160.37379    827.67184    31343.278   -1240.4776    434.96647   -805.51112   -1471.6095    804.88039   -1240.4776            0            0            0            0            0   -573.74848   -26.821158 
 1090000    362.17107    89.672117    812.64484    31922.861   -1219.3209    430.74571   -788.57517    -1452.173    806.55382   -1219.3209            0            0            0            0            0   -573.70171   -26.334201 
 1095000    362.03763    335.80272    827.66344    31343.596   -1238.7133      430.587   -808.12627   -1469.9455    804.65263   -1238.7133            0            0            0            0            0   -573.42039   -26.820887 
 1100000    345.56578    160.65372    796.97859    32550.371    -1162.161    410.99632   -751.16471   -1404.3026    815.88518    -1162.161            0            0            0            0            0   -573.74359   -25.826527 
 1105000    310.90331   -263.73734    792.03989    32753.336   -1180.1229    369.77074   -810.35212   -1418.6403    812.03053   -1180.1229            0            0            0            0            0   -573.51305   -25.666486 
 1110000    336.37447    103.74252    827.29555    31357.535   -1252.4327    400.06469   -852.36803    -1474.233    795.33904   -1252.4327            0            0            0            0            0   -573.53881   -26.808965 
 1115000     332.1982   -13.756696     810.1308    32021.926   -1201.5023    395.09767   -806.40467   -1437.2175    809.08647   -1201.5023            0            0            0            0            0    -573.3713   -26.252732 
 1120000    343.17321   -394.68697    801.36183    32372.329   -1202.1103    408.15072   -793.95959   -1434.3887    805.81741   -1202.1103            0            0            0            0            0     -573.539   -25.968568 
 1125000    338.01851    150.29835    794.22881    32663.067   -1165.7254    402.02002   -763.70542    -1398.359    806.10978   -1165.7254            0            0            0            0            0   -573.47617   -25.737419 
 1130000    332.63656    35.359095    809.93737    32029.574   -1198.7232    395.61904   -803.10418   -1430.0763    804.82917   -1198.7232            0            0            0            0            0   -573.47611   -26.246463 
 1135000    317.70363   -400.53773    793.88235    32677.321   -1169.6682    377.85865   -791.80956   -1407.0959    810.91762   -1169.6682            0            0            0            0            0   -573.48996   -25.726192 
 1140000    345.75082   -78.996724    831.60288    31195.116   -1270.9244    411.21639   -859.70802   -1495.5957    798.38627   -1270.9244            0            0            0            0            0   -573.71496   -26.948546 
 1145000    344.37088     42.27955    815.85666    31797.189   -1219.9468    409.57517   -810.37167   -1458.1521    811.63255   -1219.9468            0            0            0            0            0   -573.42732   -26.438281 
 1150000    331.37776    225.99361    812.21135    31939.899   -1205.8548    394.12188   -811.73289   -1431.5905    799.31653   -1205.8548            0            0            0            0            0   -573.58081   -26.320153 
 1155000    339.72531    86.421225    828.81102    31300.198   -1258.8861    404.04999    -854.8361   -1481.1156    795.78386   -1258.8861            0            0            0            0            0   -573.55436   -26.858074 
 1160000    327.14873    291.01281     819.8405    31642.678   -1211.7627    389.09213   -822.67058   -1443.5583    805.39394   -1211.7627            0            0            0            0            0   -573.59836    -26.56738 
 1165000    328.98291    268.61993    810.93352    31990.229   -1197.8962    391.27359   -806.62264   -1422.4895    798.08798   -1197.8962            0            0            0            0            0   -573.49473   -26.278744 
 1170000    353.68669    -27.93564    818.32371    31701.328   -1235.4687    420.65486   -814.81388   -1465.9071    803.97303   -1235.4687            0            0            0            0            0   -573.53463   -26.518227 
 1175000    360.72657   -249.71764    828.26456    31320.848   -1267.5936     429.0277   -838.56592   -1501.0731     807.2037   -1267.5936            0            0            0            0            0   -573.72424   -26.840366 
 1180000     367.9674   -63.020274    808.73191    32077.316   -1205.2936    437.63953    -767.6541   -1433.1542    801.59823   -1205.2936            0            0            0            0            0   -573.73766     -26.2074 
 1185000    324.90292    204.40784    812.20823    31940.022   -1194.9844    386.42108   -808.56331   -1429.5028    808.01946   -1194.9844            0            0            0            0            0   -573.50108   -26.320052 
 1190000    338.30205   -562.34829    791.74557    32765.512   -1171.2842    402.35724   -768.92699   -1409.8719    811.98165   -1171.2842            0            0            0            0            0   -573.39402   -25.656948 
 1195000    348.66795   -276.67469    813.94288    31871.952   -1230.0814    414.68586   -815.39551    -1461.014    804.61507   -1230.0814            0            0            0            0            0   -573.68243   -26.376264 
 1200000    341.22773   -85.263455    799.58973    32444.074   -1174.1281    405.83688   -768.29121   -1411.1153    810.54177   -1174.1281            0            0            0            0            0   -573.55452   -25.911142 
 1205000    324.81491   -80.269237    813.10221    31904.905   -1222.2444    386.31641   -835.92803    -1456.194    807.55363   -1222.2444            0            0            0            0            0   -573.60408   -26.349022 
 1210000    339.63721   -137.19827     806.2172    32177.369   -1205.9182    403.94521   -801.97298   -1440.0363     807.7282   -1205.9182            0            0            0            0            0   -573.61012   -26.125909 
 1215000    321.64639    245.62527    816.36043    31777.568   -1224.2557    382.54795   -841.70773   -1445.1698    794.60983   -1224.2557            0            0            0            0            0   -573.69575   -26.454606 
 1220000    341.36655   -45.752953    805.14535    32220.205   -1202.6667    406.00199   -796.66475    -1428.323     799.4629   -1202.6667            0            0            0            0            0   -573.80669   -26.091176 
 1225000    311.11124   -141.08254    827.83153    31337.232   -1249.9162    370.01804   -879.89821   -1483.9459    807.53558   -1249.9162            0            0            0            0            0   -573.50593   -26.826334 
 1230000    338.91272    136.22166     810.3086      32014.9    -1198.283    403.08355   -795.19947   -1436.0248    811.13629    -1198.283            0            0            0            0            0   -573.39456   -26.258493 
 1235000     324.0687   -231.30239    794.47625    32652.894   -1163.1217    385.42891   -777.69274   -1395.3306    805.55348   -1163.1217            0            0            0            0            0   -573.34458   -25.745437 
 1240000    341.03789    23.665076    826.98796    31369.197   -1241.0476     405.6111   -835.43655   -1475.3443    807.70477   -1241.0476            0            0            0            0            0   -573.40816   -26.798997 
 1245000    356.98333    219.74098    822.37833    31545.029   -1221.3891     424.5757   -796.81337   -1453.2484    805.58213   -1221.3891            0            0            0            0            0   -573.72278    -26.64962 
 1250000    322.00952   -449.92094    819.05037    31673.203   -1237.2309    382.97984   -854.25102   -1471.1537    807.30633   -1237.2309            0            0            0            0            0   -573.38345   -26.541775 
 1255000       318.54    100.79373    816.19101    31784.164   -1229.1251    378.85339   -850.27169   -1460.0814    804.64114   -1229.1251            0            0            0            0            0   -573.68485   -26.449116 
 1260000    355.24727    103.17498    826.51399    31387.186   -1244.7188    422.51092   -822.20789   -1473.2273    802.35524   -1244.7188            0            0            0            0            0   -573.84671   -26.783638 
 1265000    354.44523   -54.686224    792.46505    32735.764   -1166.8027    421.55703   -745.24564   -1411.3962     818.0573   -1166.8027            0            0            0            0            0   -573.46381   -25.680263 
 1270000    363.95395    320.09628    805.50497    32205.821   -1181.9965    432.86616   -749.13029   -1419.1171    810.44117   -1181.9965            0            0            0            0            0   -573.32049   -26.102829 
 1275000    370.24114   -225.40696    807.49143    32126.593   -1225.0214    440.34379   -784.67765   -1454.0568    802.36081   -1225.0214            0            0            0            0            0   -573.32546   -26.167201 
 1280000    322.26874    222.03348     821.1424    31592.509   -1220.4077    383.28813   -837.11955   -1454.7953    807.83115   -1220.4077            0            0            0            0            0   -573.44355   -26.609569 
 1285000    344.27848   -234.39862    795.95068    32592.407   -1188.3349    409.46527   -778.86964   -1418.5368    803.72507   -1188.3349            0            0            0            0            0   -573.52316   -25.793217 
 1290000    330.23193   -27.229365    779.46487    33281.742   -1135.3923    392.75911   -742.63322   -1372.7544    810.68619   -1135.3923            0            0            0            0            0   -573.32409   -25.258985 
 1295000    356.56472   -232.10745    802.73728     32316.86   -1193.3021    424.07783   -769.22431   -1430.6014    810.93404   -1193.3021            0            0            0            0            0   -573.63474   -26.013141 
 1300000    367.07248     85.82652    824.17732    31476.174   -1238.3286    436.57517   -801.75346   -1469.5053    804.53774   -1238.3286            0            0            0            0            0   -573.36109   -26.707917 
 1305000    351.79275    146.40966    796.79883    32557.714   -1161.9901    418.40232   -743.58781   -1395.2427     806.8053   -1161.9901            0            0            0            0            0   -573.55273   -25.820702 
 1310000    328.91984   -283.06586    792.47721    32735.261   -1160.2309    391.19858   -769.03236   -1396.1025    809.53086   -1160.2309            0            0            0            0            0   -573.65934   -25.680658 
 1315000     352.2473    196.12766    819.33102    31662.354   -1218.6824    418.94294   -799.73941   -1446.5382    801.44326   -1218.6824            0            0            0            0            0   -573.58743    -26.55087 
 1320000    340.94029   -4.0806105    811.06054    31985.219    -1201.571    405.49502   -796.07598   -1435.9105    807.77126    -1201.571            0            0            0            0            0    -573.4318    -26.28286 
 1325000    345.52229   -33.855672     796.3792     32574.87   -1173.2671    410.94459   -762.32252   -1415.9968    816.06136   -1173.2671            0            0            0            0            0   -573.33171   -25.807104 
 1330000     343.0585    245.49356     792.7089    32725.694   -1160.1781    408.01429   -752.16379    -1398.237    811.50671   -1160.1781            0            0            0            0            0   -573.44776   -25.688165 
 1335000    346.29012   -282.19252    801.00095    32386.914   -1182.0048     411.8578   -770.14699    -1424.279     816.0232   -1182.0048            0            0            0            0            0   -573.74901   -25.956874 
 1340000    346.18901    121.61334    812.85342     31914.67   -1214.0098    411.73754   -802.27227    -1439.208    798.76211   -1214.0098            0            0            0            0            0   -573.56391    -26.34096 
 1345000    346.50593   -2.5879023    814.72575    31841.327    -1214.347    412.11447   -802.23254   -1444.7293    804.11993    -1214.347            0            0            0            0            0    -573.7376   -26.401633 
 1350000    340.55871   -168.34298    802.31474     32333.88   -1197.5556    405.04119   -792.51442   -1429.0462    805.07898   -1197.5556            0            0            0            0            0   -573.58836   -25.999448 
 1355000    348.29095    880.50335    806.62535    32161.088   -1154.0627    414.23747   -739.82525   -1397.0162    816.53309   -1154.0627            0            0            0            0            0   -573.57966   -26.139135 
 1360000    342.03184    117.41161    802.12048    32341.711   -1202.7925    406.79325   -795.99928   -1439.9422    810.42446   -1202.7925            0            0            0            0            0   -573.27483   -25.993153 
 1365000    334.19296   -465.95136    807.22638    32137.142   -1219.0687    397.47013   -821.59861   -1450.6602    805.09672   -1219.0687            0            0            0            0            0   -573.50522   -26.158612 
 1370000    335.12042   -206.63566    794.25528    32661.978   -1190.9058    398.57319   -792.33264   -1423.9583    806.80564   -1190.9058            0            0            0            0            0   -573.75319   -25.738277 
 1375000    339.19513    226.68919    824.45994    31465.384   -1226.9601    403.41943   -823.54067   -1464.2759    810.91836   -1226.9601            0            0            0            0            0   -573.60252   -26.717075 
 1380000    343.83366    84.994358    819.18955    31667.822   -1218.2656    408.93623    -809.3294   -1446.3978    801.69873   -1218.2656            0            0            0            0            0   -573.56654   -26.546285 
 1385000     339.1647   -470.88668    818.13386    31708.685   -1244.0212    403.38323   -840.63797   -1473.5266    803.06328   -1244.0212            0            0            0            0            0   -573.55784   -26.512075 
 1390000    357.33129    358.01564     805.6572    32199.735   -1192.6745    424.98954   -767.68498   -1427.6756    808.56417   -1192.6745            0            0            0            0            0   -573.56308   -26.107762 
 1395000    350.54113    143.99663     812.2966    31936.547   -1203.1234    416.91371   -786.20964   -1433.3007    803.80943   -1203.1234            0            0            0            0            0   -573.63209   -26.322916 
 1400000     321.0295   -83.396639    809.80105    32034.966   -1198.3731    381.81425    -816.5589   -1433.7069    808.86461   -1198.3731            0            0            0            0            0   -573.53083   -26.242046 
 1405000    329.81981   -273.42842    798.59306    32484.566   -1195.2676    392.26895   -802.99866   -1430.4338    808.37035   -1195.2676            0            0            0            0            0    -573.2042   -25.878845 
 1410000    352.16289    64.186071    795.20038    32623.159   -1167.8283    418.84254   -748.98575   -1401.1351    806.84822   -1167.8283            0            0            0            0            0   -573.54143   -25.768903 
 1415000     329.0078   -92.619275    784.24879    33078.723   -1132.7531     391.3032    -741.4499   -1376.0556    816.87855   -1132.7531            0            0            0            0            0   -573.57601   -25.414011 
 1420000    332.34858   -431.81204    833.00311    31142.679   -1285.9003    395.27653   -890.62381   -1516.5067    804.22075   -1285.9003            0            0            0            0            0   -573.61441   -26.993921 
 1425000    327.80168     140.1357    807.87471    32111.351   -1199.0408    389.86871   -809.17207   -1429.7375    804.19177   -1199.0408            0            0            0            0            0   -573.49503   -26.179622 
 1430000    317.57261    180.10797     808.6153    32081.941   -1188.6707    377.70283   -810.96783   -1420.0413    805.08435   -1188.6707            0            0            0            0            0   -573.71374   -26.203621 
 1435000     341.5583    126.63991    810.06014    32024.719   -1197.4638    406.23004    -791.2338   -1433.3042    809.53829   -1197.4638            0            0            0            0            0   -573.69793   -26.250442 
 1440000    359.82028    290.40696    822.24827    31550.019    -1224.643    427.94981    -796.6932   -1456.7148    805.71674    -1224.643            0            0            0            0            0    -573.6449   -26.645405 
 1445000    369.85806    70.050305    820.17896     31629.62   -1228.7517    439.88817    -788.8635    -1463.032    807.86343   -1228.7517            0            0            0            0            0   -573.58311   -26.578348 
 1450000    356.46216    221.58766    813.20984    31900.682   -1214.8935    423.95585   -790.93767   -1445.1631    803.80415   -1214.8935            0            0            0            0            0   -573.53461    -26.35251 
 1455000    331.87335   -416.62726    783.91236     33092.92   -1141.2619    394.71131   -746.55056   -1384.8833    817.12559   -1141.2619            0            0            0            0            0    -573.5042   -25.403109 
 1460000    341.20172    52.917376    800.98161    32387.696   -1181.5427    405.80595   -775.73677   -1416.4911    808.53954   -1181.5427            0            0            0            0            0   -573.59119   -25.956247 
 1465000    324.79229   -94.211063    801.71013    32358.265   -1186.8177     386.2895   -800.52824     -1418.26    805.13798   -1186.8177            0            0            0            0            0    -573.6957   -25.979855 
 1470000    374.30489      -184.63    800.17383    32420.391   -1193.1181    445.17698   -747.94117   -1414.2211    794.70769   -1193.1181            0            0            0            0            0   -573.60474   -25.930071 
 1475000    333.69508    203.17205    816.03034    31790.422   -1200.2996    396.87798   -803.42165   -1442.2422    815.31563   -1200.2996            0            0            0            0            0   -573.37308   -26.443909 
 1480000    352.01324   -2.0651057    797.69215    32521.254   -1182.8677    418.66456   -764.20312   -1414.4414     805.0235   -1182.8677            0            0            0            0            0   -573.44976    -25.84965 
 1485000     342.4553   -175.36914    819.21457    31666.854    -1234.313    407.29688   -827.01615   -1462.2546    801.55185    -1234.313            0            0            0            0            0   -573.61028   -26.547096 
 1490000    349.61505     -84.5317    796.82392    32556.689   -1164.2146    415.81229   -748.40233   -1405.2448    814.61644   -1164.2146            0            0            0            0            0   -573.58624   -25.821515 
 1495000    335.07082   -335.02178    793.27848    32702.196   -1169.2663    398.51421   -770.75206   -1405.8228     809.9957   -1169.2663            0            0            0            0            0   -573.43921   -25.706623 
 1500000    348.03091   -52.268069    807.97663    32107.301   -1198.4445     413.9282   -784.51627   -1431.3249    806.62953   -1198.4445            0            0            0            0            0   -573.74905   -26.182924 
 1505000    371.73906   -426.09931    802.31371    32333.922   -1182.8868    442.12533   -740.76145   -1421.3085    811.82136   -1182.8868            0            0            0            0            0   -573.39959   -25.999415 
 1510000    361.00945    130.28843    824.42244    31466.815   -1246.9717    429.36414   -817.60753   -1474.6808    801.45347   -1246.9717            0            0            0            0            0   -573.74433    -26.71586 
 1515000    321.14599   -35.683082    803.58771     32282.66   -1189.3296    381.95281   -807.37679   -1417.9636    802.39305   -1189.3296            0            0            0            0            0   -573.75899   -26.040699 
 1520000    338.18834    301.59649    834.77469    31076.587   -1258.3772    402.22201   -856.15516   -1487.7661    802.84487   -1258.3772            0            0            0            0            0   -573.45597    -27.05133 
 1525000    315.79829   -49.054279    821.06208    31595.599   -1243.4622    375.59256   -867.86966   -1470.7666    800.79147   -1243.4622            0            0            0            0            0   -573.48707   -26.606966 
 1530000    334.37847    257.57728     801.4023    32370.694   -1172.9934    397.69076   -775.30261   -1408.6396    809.20212   -1172.9934            0            0            0            0            0   -573.55588    -25.96988 
 1535000    343.99509   -249.59197    815.54993    31809.148   -1233.4839    409.12822   -824.35563   -1461.3514    801.59409   -1233.4839            0            0            0            0            0   -573.72657   -26.428341 
 1540000    361.41786    57.601488    800.93962    32389.394   -1181.5235    429.84987   -751.67365   -1418.3161    809.98118   -1181.5235            0            0            0            0            0   -573.18856   -25.954886 
 1545000    345.63858   -396.79183    828.15675    31324.926    -1254.444     411.0829   -843.36107   -1493.7671    812.93845    -1254.444            0            0            0            0            0   -573.61529   -26.836872 
 1550000    336.36728   -361.66035    791.86908    32760.401   -1179.9558    400.05614   -779.89961   -1410.7069    804.39838   -1179.9558            0            0            0            0            0   -573.64726   -25.660951 
 1555000     338.4889   -32.676319    818.76857    31684.104   -1219.3851    402.57947   -816.80559   -1455.9468     810.1661   -1219.3851            0            0            0            0            0   -573.60439   -26.532643 
 1560000     347.6484    44.558945    812.56095    31926.157   -1222.9963    413.47326   -809.52306   -1451.1458    801.56679   -1222.9963            0            0            0            0            0   -573.41729   -26.331482 
 1565000    353.01596    198.95621    822.79179    31529.178   -1245.6106    419.85714   -825.75343   -1475.0591    802.82711   -1245.6106            0            0            0            0            0   -573.37856   -26.663018 
 1570000    343.70613   -130.22564    815.69067     31803.66   -1229.3037    408.78455   -820.51912   -1464.4965    808.59797   -1229.3037            0            0            0            0            0    -573.4051   -26.432902 
 1575000    355.35747   -4.4888776    817.29564    31741.205   -1221.4283    422.64199   -798.78627   -1453.1346    805.33128   -1221.4283            0            0            0            0            0   -573.62493   -26.484912 
 1580000    346.63204    153.07671    813.50175    31889.235   -1206.0167    412.26446   -793.75223   -1440.3003    807.67303   -1206.0167            0            0            0            0            0   -573.38945   -26.361969 
 1585000    329.83204   -21.601456    808.59738    32082.652   -1199.2066    392.28349   -806.92313   -1438.3922    812.74532   -1199.2066            0            0            0            0            0   -573.55971    -26.20304 
 1590000    320.33105   -124.57828    801.82281    32353.717   -1189.2847    380.98356   -808.30111   -1421.9709    806.30435   -1189.2847            0            0            0            0            0   -573.61808   -25.983507 
 1595000    353.53644    167.68462     804.3118    32253.597    -1188.344    420.47617   -767.86782   -1420.4937    805.71052    -1188.344            0            0            0            0            0   -573.56076   -26.064164 
[...]
 4600000    349.67157    156.20904    812.75834    31918.404    -1197.821    415.87951   -781.94146   -1436.1453    811.95004    -1197.821            0            0            0            0            0   -573.62575   -26.337878 
 4605000    332.98698   -397.68744    800.67855    32399.955   -1187.1916     396.0358   -791.15582   -1421.9899    808.38296   -1187.1916            0            0            0            0            0   -573.58471   -25.946426 
 4610000    346.98812    485.59798    816.66337     31765.78    -1201.992    412.68796   -789.30404    -1435.811     807.4925    -1201.992            0            0            0            0            0   -573.67351   -26.464423 
 4615000    351.49664    114.14434    800.25723    32417.013   -1189.1855    418.05014   -771.13535   -1421.0596    805.29462   -1189.1855            0            0            0            0            0   -573.42049   -25.932773 
 4620000    345.65224   -90.905578    800.06358    32424.859   -1178.0795    411.09915   -766.98034   -1412.0263    807.37013   -1178.0795            0            0            0            0            0   -573.42331   -25.926498 
 4625000     329.5132   -185.87531    812.97275    31909.985   -1223.4472    391.90429   -831.54288    -1456.071    806.34255   -1223.4472            0            0            0            0            0   -573.71874   -26.344827 
 4630000    330.95155   -252.26661    797.57905    32525.865   -1179.0927    393.61498   -785.47769   -1413.8131    808.31821   -1179.0927            0            0            0            0            0   -573.59783   -25.845985 
 4635000    334.13429    127.37953    827.86824    31335.842   -1243.2521    397.40035   -845.85174   -1475.1779    805.49097   -1243.2521            0            0            0            0            0   -573.56514   -26.827523 
 4640000    321.81745   -174.37272    799.12873    32462.791   -1186.7427     382.7514   -803.99126   -1420.6604    807.47256   -1186.7427            0            0            0            0            0   -573.55485   -25.896203 
 4645000    328.34334    60.925966    825.57611    31422.843   -1238.8057    390.51293   -848.29279   -1476.7117    811.44876   -1238.8057            0            0            0            0            0    -573.5428   -26.753245 
 4650000    359.40705    300.99133     822.6812    31533.416   -1217.2379    427.45833   -789.77955   -1450.2743    806.62484   -1217.2379            0            0            0            0            0   -573.58837   -26.659434 
 4655000    328.79823    42.064458    811.98958    31948.623   -1218.0869    391.05394   -827.03298   -1451.5277    806.79657   -1218.0869            0            0            0            0            0   -573.35575   -26.312966 
 4660000    348.05794    308.35225    835.49807    31049.681   -1245.1644    413.96035   -831.20406   -1474.8756    803.16301   -1245.1644            0            0            0            0            0   -573.45177   -27.074772 
 4665000    348.64271    204.40526     808.9282    32069.532   -1206.7277    414.65584   -792.07188   -1429.0347    795.82026   -1206.7277            0            0            0            0            0   -573.51329   -26.213761 
 4670000    366.96963    105.04372    794.53415    32650.514   -1161.2088    436.45284   -724.75598   -1389.2728    801.60247   -1161.2088            0            0            0            0            0   -573.53845   -25.747314 
 4675000    342.77349    395.98256    832.56459    31159.082   -1256.6185    407.67533   -848.94319   -1495.1533    812.17693   -1256.6185            0            0            0            0            0   -573.64213   -26.979711 
 4680000    339.60703   -370.09623    790.93167    32799.228   -1178.5568    403.90932   -774.64748   -1405.4324    800.36404   -1178.5568            0            0            0            0            0   -573.48844   -25.630573 
 4685000    354.87371    2.1851764    831.53842    31197.535   -1263.1928    422.06664   -841.12613   -1493.7406    804.30919   -1263.1928            0            0            0            0            0   -573.76132   -26.946457 
 4690000      339.733    265.33026    834.21468    31097.449   -1261.1604    404.05914   -857.10126   -1489.4236    801.94746   -1261.1604            0            0            0            0            0   -573.68428   -27.033183 
 4695000    332.63162   -49.333441     788.9795    32880.384   -1153.7834    395.61315   -758.17021   -1387.8599    807.54198   -1153.7834            0            0            0            0            0   -573.46541   -25.567312 
 4700000    350.09692   -312.65685    805.62303    32201.101   -1218.6587     416.3854   -802.27335   -1444.8934    799.81368   -1218.6587            0            0            0            0            0   -573.57906   -26.106655 
 4705000     316.8084      309.293    822.12948    31554.578   -1228.5317    376.79391   -851.73774   -1459.2147    804.37378   -1228.5317            0            0            0            0            0    -573.6907   -26.641555 
 4710000    355.47575   -150.94875    791.60762    32771.221   -1162.9826    422.78267   -740.19997   -1398.5012    809.04394   -1162.9826            0            0            0            0            0   -573.52534   -25.652478 
 4715000     360.6363   -310.18074    800.89537    32391.183   -1195.8277    428.92034   -766.90739   -1426.5212    804.34185   -1195.8277            0            0            0            0            0    -573.6484   -25.953453 
 4720000    343.34791    200.73024    812.27656    31937.335   -1189.4281    408.35851   -781.06959   -1426.6262    810.79363   -1189.4281            0            0            0            0            0   -573.59556   -26.322266 
 4725000    368.23876    43.009333       797.99    32509.115   -1176.9776    437.96227   -739.01532   -1412.6063    809.17211   -1176.9776            0            0            0            0            0   -573.54341   -25.859302 
 4730000      366.483   -287.36618    787.90182    32925.357   -1162.1232    435.87406   -726.24909   -1398.6141    810.02415   -1162.1232            0            0            0            0            0   -573.53317   -25.532389 
 4735000    338.86536    157.26531    802.28184    32335.206   -1177.1558    403.02722   -774.12859   -1408.3375    804.81434   -1177.1558            0            0            0            0            0   -573.63268   -25.998382 
 4740000    357.13171   -208.08789     807.0011    32146.113   -1200.2967    424.75217   -775.54449   -1436.7065    810.01032   -1200.2967            0            0            0            0            0   -573.60043   -26.151312 
 4745000    317.50605    184.32766    802.94805    32308.377   -1175.5097    377.62366   -797.88601   -1411.9512     809.8199   -1175.5097            0            0            0            0            0   -573.37834   -26.019971 
 4750000     356.8852   -384.17444    778.66715    33315.838   -1131.1237    424.45899    -706.6647   -1363.4751    806.05373   -1131.1237            0            0            0            0            0   -573.70234   -25.233135 
 4755000    385.16624    31.759502    805.79957    32194.046    -1194.359    458.09486   -736.26415   -1425.2386    804.58918    -1194.359            0            0            0            0            0   -573.70957   -26.112376 
 4760000     355.5152      11.9131    808.98509    32067.277   -1212.3736    422.82959   -789.54396   -1437.2566    798.24724   -1212.3736            0            0            0            0            0   -573.36416   -26.215604 
 4765000    332.21673    400.08672     810.2415    32017.551   -1190.6216    395.11971   -795.50194   -1420.2672    802.96004   -1190.6216            0            0            0            0            0   -573.31454   -26.256319 
 4770000    330.07139   -81.700396    809.71986    32038.177   -1202.6357    392.56817   -810.06749   -1440.5792    811.34733   -1202.6357            0            0            0            0            0   -573.40382   -26.239415 
 4775000    363.46733    234.67564      811.886    31952.699   -1198.1547     432.2874   -765.86733   -1435.4147    810.62923   -1198.1547            0            0            0            0            0   -573.36924    -26.30961 
 4780000    359.55488    268.98324    817.46176    31734.755   -1203.7237    427.63415   -776.08959   -1438.7373    808.70754   -1203.7237            0            0            0            0            0   -573.69399   -26.490296 
 4785000    332.79026    382.41479    818.90984    31678.638   -1207.7676    395.80184   -811.96573   -1447.3883    813.01912   -1207.7676            0            0            0            0            0   -573.39838   -26.537221 
 4790000    355.04797    111.83027    807.46773    32127.536   -1187.3604    422.27389   -765.08655    -1423.881    809.74008   -1187.3604            0            0            0            0            0   -573.21952   -26.166433 
 4795000    326.45756   -146.20953    790.73989    32807.184    -1154.558    388.27008   -766.28789   -1389.3445     808.4328    -1154.558            0            0            0            0            0   -573.64631   -25.624358 
 4800000    359.74886   -109.91742    809.77813    32035.872   -1212.2849    427.86486   -784.42005   -1437.7873    799.40511   -1212.2849            0            0            0            0            0    -573.9027   -26.241303 
 4805000    347.92357   -77.532066    815.29571    31819.067   -1222.9168    413.80054   -809.11631   -1449.3834    799.97284   -1222.9168            0            0            0            0            0    -573.5063   -26.420103 
 4810000    336.77496   -613.15475    808.69344    32078.842   -1218.1949    400.54101   -817.65393   -1448.0257    803.50774   -1218.1949            0            0            0            0            0   -573.67703   -26.206153 
 4815000    334.71615    -350.7666    818.98194     31675.85   -1230.1042    398.09238    -832.0118   -1468.7158    812.28373   -1230.1042            0            0            0            0            0   -573.67209   -26.539558 
 4820000    324.03982     530.6166    829.04634    31291.313   -1252.7021    385.39455   -867.30758   -1471.8685     792.6074   -1252.7021            0            0            0            0            0   -573.44105     -26.8657 
 4825000    321.98175   -31.073177    825.08481    31441.554   -1236.5302     382.9468   -853.58337   -1476.7319    813.81656   -1236.5302            0            0            0            0            0   -573.61485   -26.737325 
 4830000    337.07894    60.244361    803.21519    32297.632   -1193.2189    400.90255   -792.31639   -1423.4656    803.72731   -1193.2189            0            0            0            0            0   -573.48062   -26.028627 
 4835000    353.03686   -17.070862    806.92581    32149.112   -1200.1981    419.88199   -780.31607   -1427.0252    800.24906   -1200.1981            0            0            0            0            0   -573.42195   -26.148872 
 4840000    333.02464    -640.5839    797.38975    32533.587   -1186.4284    396.08059   -790.34779   -1422.9145    809.96876   -1186.4284            0            0            0            0            0    -573.4826   -25.839851 
 4845000    319.12647    22.905362     792.9979    32713.767   -1156.7548     379.5509   -777.20386    -1388.255     804.8511   -1156.7548            0            0            0            0            0   -573.35083   -25.697531 
 4850000    348.02213    364.28348    825.24064    31435.617   -1244.3617    413.91776   -830.44397   -1469.1019    798.22378   -1244.3617            0            0            0            0            0   -573.48363   -26.742374 
 4855000    328.87373   -278.66101    799.33766    32454.305   -1175.7169    391.14374   -784.57318   -1412.3287     810.1426   -1175.7169            0            0            0            0            0   -573.53086   -25.902974 
 4860000    358.16242    6.3131428    814.71798     31841.63   -1212.8524    425.97805   -786.87431    -1446.558    807.40539   -1212.8524            0            0            0            0            0   -573.69978   -26.401382 
 4865000    333.65944    -282.3667    799.85552    32433.293   -1194.1365    396.83558   -797.30097   -1423.4088     802.8226   -1194.1365            0            0            0            0            0    -573.5504   -25.919756 
 4870000    349.91497   -241.37143    781.85672    33179.927    -1149.266    416.16899   -733.09702   -1378.8798    803.25113    -1149.266            0            0            0            0            0   -573.63738   -25.336495 
 4875000    327.32393   -49.889338     824.6506    31458.109   -1249.1169    389.30049   -859.81641   -1473.0559    797.29794   -1249.1169            0            0            0            0            0    -573.3589   -26.723254 
 4880000    342.96387   -321.69712    814.20205    31861.807   -1225.1775    407.90175   -817.27573   -1456.2012    804.62398   -1225.1775            0            0            0            0            0   -573.60029   -26.384663 
 4885000    351.09737   -49.324616    802.79005    32314.736   -1188.8863    417.57528   -771.31101   -1423.4991    808.32312   -1188.8863            0            0            0            0            0    -573.7103   -26.014851 
 4890000    326.48037   -212.52561      800.841    32393.382   -1188.4633    388.29721   -800.16605   -1419.5036    804.27602   -1188.4633            0            0            0            0            0    -573.2357    -25.95169 
 4895000    331.34578    16.802015    792.59623    32730.346   -1160.5451    394.08385   -766.46127   -1392.6781    805.87502   -1160.5451            0            0            0            0            0   -573.74205   -25.684514 
 4900000    356.89287    125.55891    823.19274    31513.821   -1231.4011    424.46811   -806.93301   -1460.2056    802.49656   -1231.4011            0            0            0            0            0   -573.69204   -26.676011 
 4905000    361.79382    184.06293    826.57407    31384.905   -1237.5213    430.29702   -807.22432   -1474.4006    810.61565   -1237.5213            0            0            0            0            0   -573.73641   -26.785585 
 4910000    350.40929    75.029147    812.05391    31946.092   -1216.9981    416.75691   -800.24115   -1451.7398    808.45574   -1216.9981            0            0            0            0            0   -573.71403   -26.315051 
 4915000     322.3151   -15.133784     798.5015     32488.29   -1168.2533    383.34327   -784.91007   -1404.3241    809.52761   -1168.2533            0            0            0            0            0   -573.45687   -25.875878 
 4920000    345.74359    167.11528    813.99656     31869.85   -1217.0513    411.20779   -805.84355   -1447.4798    803.77139   -1217.0513            0            0            0            0            0   -573.34296   -26.378004 
 4925000    343.21564     110.1798    807.59337    32122.538   -1194.9419    408.20119    -786.7407   -1422.8567     801.4871   -1194.9419            0            0            0            0            0   -573.57233   -26.170505 
 4930000    348.72056      85.4233    803.87344    32271.185   -1195.9079    414.74844   -781.15951   -1422.8805    800.65821   -1195.9079            0            0            0            0            0   -573.68564   -26.049959 
 4935000    349.45842   -149.37169     793.7722    32681.856   -1165.9498    415.62599   -750.32378    -1401.973    809.81094   -1165.9498            0            0            0            0            0   -573.78769   -25.722622 
 4940000    347.73735   -329.40831    806.40013     32170.07   -1212.1186    413.57905   -798.53959   -1444.8307    806.18301   -1212.1186            0            0            0            0            0   -573.47093   -26.131837 
 4945000     335.2391       421.48    803.11332    32301.729   -1189.4472    398.71434   -790.73284   -1424.2736    808.27976   -1189.4472            0            0            0            0            0   -573.45335   -26.025326 
 4950000     348.6833   -517.10475    794.37954    32656.869   -1183.8812    414.70412   -769.17707   -1423.4002    813.14348   -1183.8812            0            0            0            0            0   -573.62445   -25.742303 
 4955000    339.68274   -469.04472    798.90757    32471.777    -1198.285    403.99936   -794.28565   -1430.3194    805.40804    -1198.285            0            0            0            0            0   -573.37361   -25.889037 
 4960000    332.55848   -229.79194    799.72672    32438.517   -1180.1569    395.52618   -784.63077      -1421.6      814.828   -1180.1569            0            0            0            0            0   -573.38493   -25.915582 
 4965000    335.23963    130.88289    836.37144    31017.258   -1266.3474    398.71498    -867.6324    -1494.344     801.7332   -1266.3474            0            0            0            0            0   -573.73663   -27.103074 
 4970000    332.64029    229.87757    809.24653    32056.917   -1193.2723    395.62347   -797.64888   -1423.6372    803.81582   -1193.2723            0            0            0            0            0   -573.45092   -26.224076 
 4975000     346.3895   -20.582968    814.78002    31839.206   -1213.3657      411.976   -801.38973   -1443.1999     803.5915   -1213.3657            0            0            0            0            0   -573.75735   -26.403392 
 4980000    333.17785   -202.15076    791.99214    32755.311   -1157.7878    396.26282   -761.52494   -1398.7577    814.57826   -1157.7878            0            0            0            0            0   -573.60832   -25.664938 
 4985000    315.47745    160.43222    830.57077    31233.881    -1255.204    375.21096   -879.99305   -1482.7348    801.00615    -1255.204            0            0            0            0            0   -573.47532     -26.9151 
 4990000    331.10743    -664.8583    808.27009    32095.643   -1217.2581    393.80037   -823.45771   -1456.6519     812.9669   -1217.2581            0            0            0            0            0   -573.57314   -26.192434 
 4995000    349.31024   -61.522152    793.81499    32680.094   -1163.2801    415.44977    -747.8303   -1407.8226    818.04974   -1163.2801            0            0            0            0            0   -573.50721   -25.724009 
 5000000    326.92003    354.89355    842.55373    30789.667   -1281.1184    388.82012   -892.29829   -1512.8519    805.44313   -1281.1184            0            0            0            0            0   -573.70961   -27.303414 
Loop time of 178696 on 1 procs for 5000000 steps with 2400 atoms

Performance: 2.418 ns/day, 9.928 hours/ns, 27.981 timesteps/s
100.0% CPU use with 1 MPI tasks x 1 OpenMP threads

MPI task timing breakdown:
Section |  min time  |  avg time  |  max time  |%varavg| %total
---------------------------------------------------------------
Pair    | 1.6396e+05 | 1.6396e+05 | 1.6396e+05 |   0.0 | 91.76
Bond    | 7.9698     | 7.9698     | 7.9698     |   0.0 |  0.00
Kspace  | 5595.7     | 5595.7     | 5595.7     |   0.0 |  3.13
Neigh   | 5290       | 5290       | 5290       |   0.0 |  2.96
Comm    | 569.89     | 569.89     | 569.89     |   0.0 |  0.32
Output  | 0.085076   | 0.085076   | 0.085076   |   0.0 |  0.00
Modify  | 3135.8     | 3135.8     | 3135.8     |   0.0 |  1.75
Other   |            | 131.5      |            |       |  0.07

Nlocal:        2400.00 ave        2400 max        2400 min
Histogram: 1 0 0 0 0 0 0 0 0 0
Nghost:        18775.0 ave       18775 max       18775 min
Histogram: 1 0 0 0 0 0 0 0 0 0
Neighs:    1.81215e+06 ave 1.81215e+06 max 1.81215e+06 min
Histogram: 1 0 0 0 0 0 0 0 0 0

Total # of neighbors = 1812152
Ave neighs/atom = 755.06333
Ave special neighs/atom = 8.5000000
Neighbor list builds = 84347
Dangerous builds = 0
Total wall time: 59:55:29
