LAMMPS (29 Sep 2021 - Update 2)
OMP_NUM_THREADS environment is not set. Defaulting to 1 thread. (src/comm.cpp:98)
  using 1 OpenMP thread(s) per MPI task
Reading data file ...
  orthogonal box = (-15.466318 -15.466318 -15.466318) to (15.466318 15.466318 15.466318)
  1 by 1 by 1 MPI processor grid
  reading atoms ...
  2400 atoms
  scanning bonds ...
  3 = max bonds/atom
  scanning angles ...
  3 = max angles/atom
  scanning dihedrals ...
  4 = max dihedrals/atom
  reading bonds ...
  2400 bonds
  reading angles ...
  3600 angles
  reading dihedrals ...
  3600 dihedrals
Finding 1-2 1-3 1-4 neighbors ...
  special bond factors lj:    0        0        0       
  special bond factors coul:  0        0        0       
     3 = max # of 1-2 neighbors
     4 = max # of 1-3 neighbors
     8 = max # of 1-4 neighbors
    10 = max # of special neighbors
  special bonds CPU = 0.001 seconds
  read_data CPU = 0.024 seconds
  200 rigid bodies with 2400 atoms
PPPM initialization ...
  using 12-bit tables for long-range coulomb (src/kspace.cpp:340)
  G vector (1/distance) = 0.1428774
  grid = 6 6 6
  stencil order = 5
  estimated absolute RMS force accuracy = 0.0078609937
  estimated relative force accuracy = 2.3673149e-05
  using double precision FFTW3
  3d grid and FFT values/proc = 1331 216
Neighbor list info ...
  update every 1 steps, delay 10 steps, check yes
  max neighbors/atom: 2000, page size: 100000
  master list distance cutoff = 16.655
  ghost atom cutoff = 16.655
  binsize = 8.3275, bins = 4 4 4
  1 neighbor lists, perpetual/occasional/extra = 1 0 0
  (1) pair lj/cut/coul/long, perpetual
      attributes: half, newton on
      pair build: half/bin/newton
      stencil: half/bin/3d
      bin: standard
Setting up Verlet run ...
  Unit style    : real
  Current step  : 0
  Time step     : 1
Per MPI rank memory allocation (min/avg/max) = 29.12 | 29.12 | 29.12 Mbytes
Step Temp E_pair E_mol TotEng Press 
       0      338.921     12647.25            0    13050.343    96623.734 
    5000    9606.6352    1614.8258            0    13040.412    71327.951 
Loop time of 339.612 on 1 procs for 5000 steps with 2400 atoms

Performance: 1.272 ns/day, 18.867 hours/ns, 14.723 timesteps/s
100.0% CPU use with 1 MPI tasks x 1 OpenMP threads

MPI task timing breakdown:
Section |  min time  |  avg time  |  max time  |%varavg| %total
---------------------------------------------------------------
Pair    | 282.95     | 282.95     | 282.95     |   0.0 | 83.32
Bond    | 0.0043133  | 0.0043133  | 0.0043133  |   0.0 |  0.00
Kspace  | 8.8817     | 8.8817     | 8.8817     |   0.0 |  2.62
Neigh   | 45.188     | 45.188     | 45.188     |   0.0 | 13.31
Comm    | 1.061      | 1.061      | 1.061      |   0.0 |  0.31
Output  | 4.2084e-05 | 4.2084e-05 | 4.2084e-05 |   0.0 |  0.00
Modify  | 1.395      | 1.395      | 1.395      |   0.0 |  0.41
Other   |            | 0.134      |            |       |  0.04

Nlocal:        2400.00 ave        2400 max        2400 min
Histogram: 1 0 0 0 0 0 0 0 0 0
Nghost:        19109.0 ave       19109 max       19109 min
Histogram: 1 0 0 0 0 0 0 0 0 0
Neighs:    1.88190e+06 ave  1.8819e+06 max  1.8819e+06 min
Histogram: 1 0 0 0 0 0 0 0 0 0

Total # of neighbors = 1881901
Ave neighs/atom = 784.12542
Ave special neighs/atom = 8.5000000
Neighbor list builds = 431
Dangerous builds = 63
  create bodies CPU = 0.001 seconds
  200 rigid bodies with 2400 atoms
  3.8930170 = max distance from body owner to body atom
PPPM initialization ...
  using 12-bit tables for long-range coulomb (src/kspace.cpp:340)
  G vector (1/distance) = 0.1428774
  grid = 6 6 6
  stencil order = 5
  estimated absolute RMS force accuracy = 0.0078609937
  estimated relative force accuracy = 2.3673149e-05
  using double precision FFTW3
  3d grid and FFT values/proc = 1331 216
Setting up Verlet run ...
  Unit style    : real
  Current step  : 5000
  Time step     : 1
Per MPI rank memory allocation (min/avg/max) = 36.94 | 36.94 | 36.94 Mbytes
Step Temp E_pair E_mol TotEng Press Volume 
    5000    9606.6352    1614.8258            0    13040.412    89271.201    29597.212 
 1005000    331.35103   -1225.5823            0   -831.49215    213.83247    31695.891 
Loop time of 54708.9 on 1 procs for 1000000 steps with 2400 atoms

Performance: 1.579 ns/day, 15.197 hours/ns, 18.279 timesteps/s
100.0% CPU use with 1 MPI tasks x 1 OpenMP threads

MPI task timing breakdown:
Section |  min time  |  avg time  |  max time  |%varavg| %total
---------------------------------------------------------------
Pair    | 50184      | 50184      | 50184      |   0.0 | 91.73
Bond    | 2.0146     | 2.0146     | 2.0146     |   0.0 |  0.00
Kspace  | 1793.5     | 1793.5     | 1793.5     |   0.0 |  3.28
Neigh   | 1633.3     | 1633.3     | 1633.3     |   0.0 |  2.99
Comm    | 161.62     | 161.62     | 161.62     |   0.0 |  0.30
Output  | 4.1517e-05 | 4.1517e-05 | 4.1517e-05 |   0.0 |  0.00
Modify  | 901.6      | 901.6      | 901.6      |   0.0 |  1.65
Other   |            | 32.64      |            |       |  0.06

Nlocal:        2400.00 ave        2400 max        2400 min
Histogram: 1 0 0 0 0 0 0 0 0 0
Nghost:        18320.0 ave       18320 max       18320 min
Histogram: 1 0 0 0 0 0 0 0 0 0
Neighs:    1.75775e+06 ave 1.75775e+06 max 1.75775e+06 min
Histogram: 1 0 0 0 0 0 0 0 0 0

Total # of neighbors = 1757746
Ave neighs/atom = 732.39417
Ave special neighs/atom = 8.5000000
Neighbor list builds = 17005
Dangerous builds = 0
PPPM initialization ...
  using 12-bit tables for long-range coulomb (src/kspace.cpp:340)
  G vector (1/distance) = 0.14139053
  grid = 6 6 6
  stencil order = 5
  estimated absolute RMS force accuracy = 0.0083199037
  estimated relative force accuracy = 2.5055143e-05
  using double precision FFTW3
  3d grid and FFT values/proc = 1331 216
Setting up Verlet run ...
  Unit style    : real
  Current step  : 0
  Time step     : 1
Per MPI rank memory allocation (min/avg/max) = 36.94 | 36.94 | 36.94 Mbytes
Step Temp Press v_dens Volume PotEng KinEng TotEng E_vdwl E_coul E_pair E_bond E_angle E_dihed E_impro E_mol E_long E_tail 
       0    331.35103    898.02641    818.46409    31695.891   -1225.6306     394.0901   -831.54051   -1454.0332    801.43843   -1225.6306            0            0            0            0            0   -573.03581   -26.522776 
    5000    339.17254    561.60106    798.23378    32499.187   -1152.1042    403.39255   -748.71169   -1384.7524    805.61989   -1152.1042            0            0            0            0            0   -572.97177   -25.867202 
   10000    378.72739    279.14873    815.97835    31792.447   -1219.5975    450.43685   -769.16062   -1448.5685    801.73708   -1219.5975            0            0            0            0            0   -572.76601   -26.442225 
   15000    351.97429   -371.12645    815.18548    31823.369   -1237.2501    418.61824   -818.63189   -1470.7216    806.34427   -1237.2501            0            0            0            0            0   -572.87285   -26.416531 
   20000    325.52221     479.4391    824.16795    31476.532   -1221.0646    387.15764   -833.90696   -1454.0368    805.79493   -1221.0646            0            0            0            0            0   -572.82275   -26.707613 
   25000    343.96047    134.13579    809.98067    32027.862   -1193.2153    409.08705   -784.12822   -1422.6483    802.45436   -1193.2153            0            0            0            0            0   -573.02136   -26.247866 
   30000    367.06678    745.64672    811.10924    31983.298   -1181.6578    436.56838    -745.0894   -1413.9596    804.91472   -1181.6578            0            0            0            0            0    -572.6129   -26.284439 
   35000    336.70854    64.621131    799.24182    32458.197   -1181.3019    400.46202   -780.83989     -1421.75    813.08039   -1181.3019            0            0            0            0            0   -572.63231   -25.899868 
   40000    353.95839    212.29245    797.90047    32512.763   -1172.4753      420.978   -751.49728   -1407.0638    807.48389   -1172.4753            0            0            0            0            0   -572.89537   -25.856401 
   45000    355.64499   -505.73347    783.63502    33104.632   -1155.3562    422.98395   -732.37224   -1394.5785    811.90972   -1155.3562            0            0            0            0            0   -572.68745   -25.394121 
   50000     352.6619    250.62106    800.88073    32391.775   -1171.5622    419.43603   -752.12619   -1412.6193    813.55753   -1171.5622            0            0            0            0            0   -572.50043   -25.952978 
   55000    319.47145   -158.87726    784.01513    33088.582   -1158.6518     379.9612   -778.69057   -1389.1678    803.33735   -1158.6518            0            0            0            0            0   -572.82133   -25.406439 
   60000    317.21558    -153.1772    805.91102    32189.594   -1200.9722     377.2782   -823.69398   -1429.5646    801.33974   -1200.9722            0            0            0            0            0    -572.7473   -26.115987 
   65000    350.14153   -257.54613    810.52994    32006.157   -1212.4754    416.43845    -796.0369   -1446.7075    807.07312   -1212.4754            0            0            0            0            0   -572.84096   -26.265666 
   70000    351.09551    -309.8013    795.80555    32598.351   -1181.6377    417.57306    -764.0646   -1417.2986    808.49127   -1181.6377            0            0            0            0            0   -572.83038   -25.788514 
   75000    339.48137    166.05319    792.04405    32753.164   -1156.7879    403.75987     -753.028   -1389.9913     806.0938   -1156.7879            0            0            0            0            0   -572.89038   -25.666621 
   80000    319.93059    61.273008    810.93084    31990.334   -1207.3086    380.50727    -826.8013   -1434.4466    799.95009   -1207.3086            0            0            0            0            0   -572.81205   -26.278658 
   85000    352.58925   -257.04684    803.40238    32290.107   -1197.9213    419.34963   -778.57171   -1433.9199    808.65036   -1197.9213            0            0            0            0            0   -572.65175   -26.034693 
   90000    358.38719    37.460169    829.22007    31284.757   -1241.9591    426.24537   -815.71376   -1483.3987    814.21519   -1241.9591            0            0            0            0            0    -572.7756    -26.87133 
   95000    332.57634   -68.755841    784.96469    33048.555   -1137.1593    395.54741   -741.61189   -1373.4747    809.12531   -1137.1593            0            0            0            0            0   -572.80992    -25.43721 
  100000     353.4237    202.62216    804.22228    32257.187   -1178.9486    420.34208   -758.60648   -1405.3357      799.065   -1178.9486            0            0            0            0            0   -572.67785   -26.061263 
  105000    366.35786    -258.1572    804.06455    32263.515   -1200.9463    435.72523    -765.2211   -1434.8904    806.79819   -1200.9463            0            0            0            0            0   -572.85414   -26.056152 
  110000    356.13101    15.310739    815.10561    31826.488   -1210.8672      423.562   -787.30519   -1448.7712    810.87223   -1210.8672            0            0            0            0            0   -572.96824   -26.413943 
  115000    335.97043    595.83552    829.45717    31275.815    -1223.547    399.58415   -823.96289   -1455.8612    805.03702    -1223.547            0            0            0            0            0   -572.72285   -26.879013 
  120000    346.09194   -87.580687    804.57771    32242.937   -1194.4677     411.6221   -782.84557   -1433.7304    811.60127   -1194.4677            0            0            0            0            0   -572.33855   -26.072781 
  125000    343.24293    66.502943    810.65906    32001.059   -1202.7427    408.23364   -794.50905    -1437.748    807.77079   -1202.7427            0            0            0            0            0   -572.76547    -26.26985 
  130000    347.82842    578.03376    792.74477    32724.213   -1152.0885    413.68737   -738.40117   -1385.9709    806.53295   -1152.0885            0            0            0            0            0   -572.65057   -25.689328 
  135000    335.00274    431.41572    816.14263    31786.048   -1203.6209    398.43323   -805.18763   -1436.2466    805.67437   -1203.6209            0            0            0            0            0   -573.04859   -26.447548 
  140000    366.97187   -85.487165    792.00926    32754.603   -1151.8352     436.4555   -715.37974   -1398.7261    819.43813   -1151.8352            0            0            0            0            0   -572.54725   -25.665493 
  145000    354.42543    613.02141    808.17962    32099.236   -1180.5021    421.53347   -758.96862   -1411.1414    803.33102   -1180.5021            0            0            0            0            0   -572.69175   -26.189503 
  150000    346.08825   -267.73038    784.70353    33059.554   -1156.9307    411.61772   -745.31303    -1393.382     809.3614   -1156.9307            0            0            0            0            0   -572.91018   -25.428747 
  155000    350.49353    254.35593      801.758    32356.333   -1174.7255     416.8571   -757.86842   -1407.7076    805.66716   -1174.7255            0            0            0            0            0   -572.68508   -25.981407 
  160000    333.86394   -443.97705    786.72159    32974.751   -1171.2446    397.07881   -774.16581   -1391.3989    793.01538   -1171.2446            0            0            0            0            0   -572.86115   -25.494144 
  165000    389.04609    443.92586    830.70752    31228.739   -1243.5975    462.70932    -780.8882   -1476.1128    805.33125   -1243.5975            0            0            0            0            0   -572.81598   -26.919532 
  170000    338.05313   -275.74171    827.91894    31333.923     -1254.63     402.0612   -852.56885   -1481.7609    799.82413     -1254.63            0            0            0            0            0   -572.69327   -26.829166 
  175000    357.58249     283.0227     811.1618    31981.226    -1196.589    425.28831   -771.30073   -1425.3638    801.66978    -1196.589            0            0            0            0            0   -572.89504   -26.286142 
  180000    310.41419    117.67734    807.93701    32108.875   -1203.6549    369.18901   -834.46588   -1434.5632    803.52447   -1203.6549            0            0            0            0            0   -572.61617   -26.181641 
  185000    348.90685    411.50545     822.6137    31536.004   -1223.9289    414.96999   -808.95891    -1460.137    809.01175   -1223.9289            0            0            0            0            0    -572.8036   -26.657247 
  190000    380.31717   -697.80296    793.97968    32673.316   -1201.3987    452.32764   -749.07101   -1423.0796    794.53767   -1201.3987            0            0            0            0            0   -572.85675   -25.729346 
  195000    375.01821   -238.50048    816.02753    31790.531   -1226.0157    446.02536   -779.99039   -1460.4583    807.20444   -1226.0157            0            0            0            0            0   -572.76185   -26.443819 
  200000    350.70674   -477.07415    796.59988    32565.845   -1188.4603    417.11067   -771.34959   -1427.0915      811.341   -1188.4603            0            0            0            0            0   -572.70981   -25.814255 
  205000    343.47635    109.41643    809.67623    32039.904   -1205.9497    408.51126   -797.43846   -1436.2712    803.11047   -1205.9497            0            0            0            0            0   -572.78897   -26.238001 
  210000    360.98984   -160.32054    807.42171    32129.367   -1205.6245    429.34081   -776.28368   -1440.6394    807.70629   -1205.6245            0            0            0            0            0   -572.69142   -26.164942 
  215000    346.02047   -301.10826    795.99779    32590.478    -1182.542     411.5371   -771.00485   -1417.7419     807.9645    -1182.542            0            0            0            0            0    -572.7646   -25.794744 
  220000    332.25641    167.75624    799.26703    32457.174   -1179.7632     395.1669   -784.59625   -1410.0668    803.19508   -1179.7632            0            0            0            0            0   -572.89139   -25.900685 
  225000    347.83029    211.27298    797.32363    32536.285   -1151.8341     413.6896   -738.14449   -1392.6062    813.47552   -1151.8341            0            0            0            0            0   -572.70344   -25.837708 
  230000    345.35901   -211.61193    780.24696    33248.382    -1138.786    410.75039    -728.0356   -1371.1167    805.11497    -1138.786            0            0            0            0            0   -572.78421   -25.284329 
  235000    345.74516   -398.16398    771.44906    33627.559   -1118.8921    411.20966    -707.6824   -1359.7906    813.91155   -1118.8921            0            0            0            0            0   -573.01298   -24.999229 
  240000    313.54088   -396.20962    798.06188    32506.187   -1182.4595    372.90771   -809.55182   -1418.4901    809.01004   -1182.4595            0            0            0            0            0    -572.9795   -25.861632 
  245000    342.26634    411.84943    809.74882    32037.032   -1192.1475    407.07215   -785.07539    -1424.539    805.11746   -1192.1475            0            0            0            0            0   -572.72602   -26.240353 
  250000    347.26622     236.0871    815.09177    31827.028   -1220.8257    413.01872   -807.80699   -1445.7974    797.57438   -1220.8257            0            0            0            0            0   -572.60273   -26.413494 
  255000    354.85002   -132.75984     801.8598    32352.225   -1193.6874    422.03847   -771.64896   -1427.2415    806.36579   -1193.6874            0            0            0            0            0   -572.81175   -25.984705 
  260000    371.32514   -102.22126    791.47051    32776.899   -1161.6188    441.63303   -719.98575   -1394.4283    805.53165   -1161.6188            0            0            0            0            0   -572.72212   -25.648035 
  265000    384.19973     830.1877    811.88419     31952.77   -1182.4733    456.94534   -725.52791   -1415.7229    805.79836   -1182.4733            0            0            0            0            0   -572.54868   -26.309551 
  270000    341.61644   -251.54325    816.86361    31757.993   -1223.2783     406.2992   -816.97908   -1459.4709    808.74897   -1223.2783            0            0            0            0            0   -572.55634   -26.470912 
  275000    362.48533    10.144377    818.73813    31685.282   -1229.1053    431.11946   -797.98583   -1457.6164    801.08542   -1229.1053            0            0            0            0            0   -572.57428   -26.531657 
  280000    340.75838   -297.19921    793.15176    32707.421   -1174.3522    405.27866   -769.07356   -1408.5424    807.10202   -1174.3522            0            0            0            0            0    -572.9118   -25.702517 
  285000     345.9358    239.50898    813.97546    31870.676    -1203.127     411.4364   -791.69065   -1436.0047    805.82241    -1203.127            0            0            0            0            0   -572.94471    -26.37732 
  290000    364.91576    315.69206    820.97062    31599.119   -1231.3138    434.01008   -797.30376   -1459.4164    800.97114   -1231.3138            0            0            0            0            0   -572.86856   -26.604002 
  295000    344.01276    160.45314    815.46061    31812.633   -1219.0877    409.14924   -809.93848    -1455.922    809.74364   -1219.0877            0            0            0            0            0   -572.90941   -26.425447 
  300000     348.3185   -82.339693     775.4118    33455.705    -1135.944    414.27024   -721.67372   -1365.3482     801.9783    -1135.944            0            0            0            0            0   -572.57406   -25.127644 
  305000     353.7752    40.905583    809.02286     32065.78   -1205.3523    420.76014   -784.59212   -1439.2529     806.7464   -1205.3523            0            0            0            0            0   -572.84576   -26.216828 
  310000    358.49837    89.328841     813.8445    31875.805   -1215.2689    426.37761   -788.89129   -1446.9066    804.43892   -1215.2689            0            0            0            0            0   -572.80124   -26.373076 
  315000    323.43347    362.40218    832.34647    31167.248   -1256.3231     384.6734   -871.64974   -1481.5566    798.27043   -1256.3231            0            0            0            0            0   -573.03695   -26.972643 
  320000      321.495    280.06693    818.93341    31677.726   -1220.5422     382.3679   -838.17434   -1445.1734    797.56463   -1220.5422            0            0            0            0            0   -572.93343   -26.537985 
  325000    323.95331   -298.84016     788.2519    32910.734   -1154.3677    385.29167   -769.07601   -1394.3643    812.70849   -1154.3677            0            0            0            0            0   -572.71193   -25.543734 
  330000     324.4458   -77.614233    800.44433    32409.435   -1188.7741    385.87741   -802.89664   -1428.7837    812.92739   -1188.7741            0            0            0            0            0   -572.91777   -25.938836 
  335000    354.96237   -153.30585     813.5452    31887.532   -1220.9081    422.17209   -798.73597   -1456.8203    808.77299   -1220.9081            0            0            0            0            0   -572.86077   -26.363377 
  340000    312.66519    451.31368    808.44218    32088.811   -1182.7578    371.86623   -810.89156   -1418.5159    808.45763   -1182.7578            0            0            0            0            0   -572.69947   -26.198011 
  345000    351.72817    316.09867    815.84088    31797.804   -1204.5194    418.32552   -786.19389   -1436.8563    805.02157   -1204.5194            0            0            0            0            0   -572.68463    -26.43777 
  350000    344.62733   -22.833742    776.94748    33389.578   -1127.4988    409.88018    -717.6186    -1362.294    807.79846   -1127.4988            0            0            0            0            0   -573.00329   -25.177408 
  355000    339.50425    477.79013    803.38938    32290.629   -1182.1196    403.78708    -778.3325   -1414.1063    804.81478   -1182.1196            0            0            0            0            0   -572.82803   -26.034272 
  360000    339.82283   -15.800787    807.53623    32124.811   -1195.7404    404.16598    -791.5744   -1424.6623    801.46285   -1195.7404            0            0            0            0            0   -572.54095   -26.168653 
  365000    352.62194    -323.4727    804.05701    32263.817   -1194.7125     419.3885   -775.32399   -1434.3643    812.57868   -1194.7125            0            0            0            0            0   -572.92692   -26.055907 
  370000    323.34089     98.41945    789.34492    32865.162   -1166.8711     384.5633   -782.30785    -1402.323    808.20769   -1166.8711            0            0            0            0            0   -572.75588   -25.579154 
  375000    373.88151   -79.436679    780.26018    33247.818   -1137.9366    444.67344   -693.26311   -1367.2745     802.0394   -1137.9366            0            0            0            0            0   -572.70144   -25.284758 
  380000    353.10341    129.60574     806.1956    32178.231   -1196.5539    419.96115   -776.59276   -1422.2539    798.45768   -1196.5539            0            0            0            0            0    -572.7577   -26.125209 
  385000    344.62659    104.68156     832.5398     31160.01   -1260.4497     409.8793   -850.57043   -1489.0442    801.43665   -1260.4497            0            0            0            0            0   -572.84219   -26.978908 
  390000    350.46857     79.27244    823.36814    31507.108   -1235.1427    416.82741   -818.31528   -1465.5367    803.22904   -1235.1427            0            0            0            0            0     -572.835   -26.681695 
  395000    338.05175    329.04101     815.5098    31810.714    -1208.221    402.05956   -806.16143   -1438.3419    803.02659    -1208.221            0            0            0            0            0   -572.90566   -26.427041 
  400000    359.46755    35.301302    796.53871    32568.346   -1175.6186    427.53029   -748.08827   -1408.5172    805.67897   -1175.6186            0            0            0            0            0   -572.78028   -25.812273 
  405000     342.1888    66.645775    801.95192    32348.509   -1196.5953    406.97992   -789.61538   -1424.0521    800.24688   -1196.5953            0            0            0            0            0   -572.79006   -25.987691 
  410000    331.23475     177.9333    804.62877    32240.891    -1188.318    393.95181   -794.36618   -1417.9988    802.60381    -1188.318            0            0            0            0            0   -572.92298   -26.074435 
  415000    353.90224   -149.37471    800.42069    32410.393   -1183.9886    420.91122    -763.0774   -1412.0519    800.82863   -1183.9886            0            0            0            0            0   -572.76533    -25.93807 
  420000    344.59169   -403.76611    818.67049      31687.9   -1247.8261    409.83779   -837.98827   -1481.4515    806.49508   -1247.8261            0            0            0            0            0    -572.8696   -26.529465 
  425000    335.92935    186.69615     806.1994     32178.08    -1191.301    399.53529   -791.76572   -1426.4473    807.96216    -1191.301            0            0            0            0            0    -572.8159   -26.125332 
  430000    348.13008   -167.57699    799.10341    32463.819   -1182.3398    414.04615   -768.29366   -1424.9867    815.31349   -1182.3398            0            0            0            0            0   -572.66659   -25.895383 
  435000    335.61117    46.226157     798.6872    32480.737   -1176.9043    399.15687   -777.74748   -1410.4775    806.02587   -1176.9043            0            0            0            0            0   -572.45273   -25.881896 
  440000    321.02994    95.127383    813.72222    31880.595   -1211.4956    381.81478   -829.68079   -1442.3968    803.36707   -1211.4956            0            0            0            0            0   -572.46579   -26.369114 
  445000     355.5418    387.02212    800.64285    32401.399   -1165.3812    422.86123   -742.51997   -1402.0002    809.09296   -1165.3812            0            0            0            0            0   -572.47396   -25.945269 
  450000     363.5466    229.11432    793.10782    32709.233     -1158.55    432.38169   -726.16835   -1395.0711    809.56794     -1158.55            0            0            0            0            0   -573.04692   -25.701093 
  455000    328.77918   -109.93529    797.65021    32522.964   -1178.6569    391.03129   -787.62566   -1410.5423    804.53013   -1178.6569            0            0            0            0            0   -572.64479   -25.848291 
  460000    355.50221    509.49841    820.93967    31600.311   -1214.4835    422.81414   -791.66939   -1450.0546    808.31437   -1214.4835            0            0            0            0            0    -572.7433   -26.602999 
  465000    338.58971   -554.98517    799.85141     32433.46   -1190.0249    402.69937    -787.3255    -1429.994    812.95422   -1190.0249            0            0            0            0            0   -572.98508   -25.919622 
  470000    330.92714   -228.16333    794.98981      32631.8   -1168.5398    393.58594   -774.95383   -1407.4611    811.65913   -1168.5398            0            0            0            0            0   -572.73776   -25.762079 
  475000    356.85813   -310.12677    812.95534    31910.669   -1210.2662    424.42679   -785.83944   -1448.6462     811.0049   -1210.2662            0            0            0            0            0   -572.62497   -26.344262 
  480000    352.25638    120.87831    813.47754    31890.184   -1210.2824    418.95373   -791.32868   -1443.6106    806.14621   -1210.2824            0            0            0            0            0   -572.81802   -26.361185 
  485000    345.09825    399.71958    819.96925    31637.709   -1202.6491    410.44026   -792.20882   -1442.8169    812.87431   -1202.6491            0            0            0            0            0   -572.70648   -26.571552 
  490000    340.13003   -247.84302    792.95183    32715.668   -1178.4295    404.53135   -773.89814   -1415.2236    809.50848   -1178.4295            0            0            0            0            0   -572.71439   -25.696038 
  495000    341.69222    604.32981    815.97205    31792.693   -1206.5483    406.38932   -800.15898    -1437.563    803.78863   -1206.5483            0            0            0            0            0    -572.7739    -26.44202 
  500000    344.98605   -373.21223    775.90494    33434.442   -1138.4487    410.30682   -728.14185   -1379.5943    813.82987   -1138.4487            0            0            0            0            0   -572.68421   -25.143624 
  505000    359.34355   -240.65407    786.23998     32994.95   -1158.0788    427.38281   -730.69598   -1389.6323     804.4482   -1158.0788            0            0            0            0            0   -572.89471   -25.478536 
  510000    352.99826   -205.63661    799.92976    32430.283   -1185.3756    419.83608   -765.53952   -1417.6859    805.30734   -1185.3756            0            0            0            0            0     -572.997   -25.922161 
  515000     308.6164    270.87609    798.84777    32474.208   -1151.9071    367.05082   -784.85631   -1394.8948     815.7035   -1151.9071            0            0            0            0            0   -572.71583   -25.887099 
  520000    340.16531   -132.17017    824.78944    31452.814   -1238.2185     404.5733   -833.64525   -1474.9979    809.55745   -1238.2185            0            0            0            0            0   -572.77814   -26.727753 
  525000    340.06582   -214.23526    792.40481    32738.252   -1165.3425    404.45497   -760.88755    -1402.008    809.28631   -1165.3425            0            0            0            0            0   -572.62082   -25.678311 
  530000    357.95259   -222.78953    803.94307     32268.39   -1191.1851    425.72848   -765.45658   -1434.3216    815.88827   -1191.1851            0            0            0            0            0   -572.75176   -26.052215 
  535000    358.25824    173.32675    818.76786    31684.132   -1218.6298    426.09201   -792.53782   -1451.0463    805.31884   -1218.6298            0            0            0            0            0    -572.9024    -26.53262 
  540000    359.09026   -35.366146    814.75303    31840.261   -1211.1037    427.08156   -784.02219    -1443.236    804.75024   -1211.1037            0            0            0            0            0   -572.61803   -26.402517 
  545000    355.22671   -234.93471     811.6164    31963.313   -1222.9931    422.48648   -800.50667   -1448.8987    798.91507   -1222.9931            0            0            0            0            0   -573.00947   -26.300873 
  550000    343.10107    83.936986    830.75976    31226.776    -1254.885    408.06493   -846.82004   -1491.0054     808.9822    -1254.885            0            0            0            0            0   -572.86179   -26.921224 
  555000    346.69186   -183.30458    815.91885    31794.766    -1216.884    412.33561   -804.54843   -1450.4361    806.40719    -1216.884            0            0            0            0            0   -572.85518   -26.440296 
  560000    335.80036   -194.01092    827.43801    31352.136   -1258.5981    399.38187   -859.21619   -1486.9159    801.29222   -1258.5981            0            0            0            0            0   -572.97441   -26.813581 
  565000    350.64389   -42.457146    813.88522     31874.21   -1214.8099    417.03593   -797.77393    -1446.511    804.53762   -1214.8099            0            0            0            0            0   -572.83645   -26.374396 
  570000    343.98671   -611.34842    781.87241    33179.261   -1153.7794    409.11826    -744.6611   -1387.6234    806.47039   -1153.7794            0            0            0            0            0   -572.62639   -25.337003 
  575000    333.86412   -441.33298    806.80519    32153.919   -1213.6906    397.07902   -816.61153   -1443.9011    803.06948   -1213.6906            0            0            0            0            0   -572.85893   -26.144964 
  580000    337.42391    -168.9649    796.86818    32554.881   -1184.4377    401.31283   -783.12488   -1412.3722      800.709   -1184.4377            0            0            0            0            0   -572.77455   -25.822949 
  585000    324.63307    3.7112508    815.85376    31797.302   -1209.2135    386.10013   -823.11333   -1449.2752    812.83944   -1209.2135            0            0            0            0            0   -572.77773   -26.438187 
  590000    352.09564    -39.06919    788.49138    32900.739   -1162.9237    418.76256   -744.16114   -1399.4483     808.9975   -1162.9237            0            0            0            0            0   -572.47287   -25.551494 
  595000    331.18612    39.142762    794.00582     32672.24   -1163.8674    393.89397    -769.9734   -1390.3068    799.23018   -1163.8674            0            0            0            0            0   -572.79074   -25.730193 
  600000    354.19871   -56.564105    787.74777    32931.796   -1149.5939    421.26383    -728.3301   -1384.8616    808.04304   -1149.5939            0            0            0            0            0   -572.77536   -25.527397 
  605000    355.82853   -62.932235    802.74212    32316.666   -1190.1947    423.20224   -766.99245   -1425.9583    808.47821   -1190.1947            0            0            0            0            0   -572.71457   -26.013297 
  610000    374.66617   -241.47805     794.6015    32647.747   -1168.3336    445.60667   -722.72696   -1403.4427    807.73641   -1168.3336            0            0            0            0            0   -572.62737   -25.749496 
  615000     358.2798    108.27248    786.19002    32997.046   -1143.2985    426.11765   -717.18087   -1375.9551     805.3363   -1143.2985            0            0            0            0            0   -572.67967   -25.476918 
  620000    344.91666   -331.83232    787.08769    32959.413   -1166.2985    410.22429    -756.0742   -1395.1541    801.78532   -1166.2985            0            0            0            0            0   -572.92971   -25.506007 
  625000     360.2244   -87.253394    819.17678    31668.315   -1236.2241    428.43044   -807.79365   -1458.5756    795.22722   -1236.2241            0            0            0            0            0   -572.87574   -26.545872 
  630000    326.77648   -95.189008    810.38944    32011.706   -1199.0645    388.64939   -810.41514   -1432.5126    806.19082   -1199.0645            0            0            0            0            0   -572.74279   -26.261113 
  635000    341.91228   -296.92978    800.30513    32415.072   -1191.6671    406.65105    -785.0161   -1429.5182    810.56619   -1191.6671            0            0            0            0            0   -572.71516   -25.934326 
  640000    363.14767    -81.08524    827.81264    31337.947   -1243.5722    431.90721   -811.66495   -1476.3365    805.65615   -1243.5722            0            0            0            0            0   -572.89183   -26.825721 
  645000    346.54912   -167.21467    804.64992    32240.044   -1191.3161    412.16585   -779.15022   -1427.1666    808.41077   -1191.3161            0            0            0            0            0   -572.56023   -26.075121 
  650000    319.32836    183.71435    811.31624    31975.138   -1198.4129    379.79102   -818.62188    -1431.896    806.27602   -1198.4129            0            0            0            0            0   -572.79297   -26.291146 
  655000    354.40885    500.39535    812.48744    31929.046   -1209.0216    421.51376    -787.5078   -1437.9121    801.75013   -1209.0216            0            0            0            0            0    -572.8596     -26.3291 
  660000    328.76115   -400.19403    786.09567    33001.007   -1148.8817    391.00984   -757.87182   -1391.6453    815.41874   -1148.8817            0            0            0            0            0   -572.65509    -25.47386 
  665000    352.07513    171.91154    792.93041    32716.552   -1155.8881    418.73817   -737.14992   -1391.7987     808.6965   -1155.8881            0            0            0            0            0   -572.78584   -25.695343 
  670000    336.73104    178.14692    804.52669    32244.982   -1190.1475    400.48878   -789.65877   -1424.0547    806.75984   -1190.1475            0            0            0            0            0    -572.8527   -26.071127 
  675000    362.90065    -379.9993    785.33852    33032.823   -1148.4244    431.61342   -716.81101   -1390.6745    814.98416   -1148.4244            0            0            0            0            0   -572.73411   -25.449324 
  680000    341.76879    222.52703    820.18719    31629.302   -1222.2609    406.48039   -815.78051   -1459.2308    809.65541   -1222.2609            0            0            0            0            0   -572.68549   -26.578614 
  685000     348.0646    405.23507    808.95195     32068.59   -1171.5933    413.96827     -757.625   -1416.8377    817.99792   -1171.5933            0            0            0            0            0   -572.75353    -26.21453 
  690000    360.67459     -64.0603    801.70701    32358.391   -1185.0747    428.96588   -756.10886   -1421.0604    808.67512   -1185.0747            0            0            0            0            0   -572.68947   -25.979754 
  695000    371.97943   -73.677879    819.15319    31669.227   -1225.7302    442.41122   -783.31895   -1458.4062    805.31701   -1225.7302            0            0            0            0            0   -572.64101   -26.545107 
  700000    325.68889   -163.33052     806.7799    32154.927   -1200.3499    387.35587     -812.994   -1432.8524    805.46151   -1200.3499            0            0            0            0            0   -572.95895   -26.144144 
  705000    336.14889   -386.72055    796.35711    32575.773   -1185.0595     399.7964   -785.26308   -1417.4682    805.23145   -1185.0595            0            0            0            0            0   -572.82269   -25.806388 
  710000    340.99388    757.05671    818.60923    31690.271   -1211.1961    405.55875   -805.63738   -1443.2028    804.89085   -1211.1961            0            0            0            0            0   -572.88418    -26.52748 
  715000    348.02983    511.20387    806.24646    32176.202    -1172.127    413.92692   -758.20005   -1408.6076     809.0861    -1172.127            0            0            0            0            0   -572.60549   -26.126857 
  720000    336.92639    277.81577    790.34221    32823.691   -1144.3187    400.72111   -743.59757   -1383.7521    812.06988   -1144.3187            0            0            0            0            0   -572.63647   -25.611472 
  725000    345.43596     227.6582    814.07708    31866.698   -1208.1589    410.84191   -797.31698   -1443.0528    807.67657   -1208.1589            0            0            0            0            0   -572.78261   -26.380613 
  730000    343.64411    740.92416    816.60724    31767.963   -1184.0881    408.71079    -775.3773   -1417.7757    806.74761   -1184.0881            0            0            0            0            0   -573.05995   -26.462604 
  735000    348.81243     123.0671    806.46037    32167.667    -1189.699    414.85769   -774.84128   -1423.6009    806.65816    -1189.699            0            0            0            0            0   -572.75628   -26.133789 
  740000    368.50688   -304.84519     791.2234    32787.135   -1169.8782    438.28115   -731.59704    -1399.298    802.06664   -1169.8782            0            0            0            0            0   -572.64683   -25.640027 
  745000    379.48566   -391.08474    795.85382    32596.374    -1180.096    451.33869   -728.75735   -1416.8333    809.19101    -1180.096            0            0            0            0            0   -572.45371   -25.790078 
  750000    351.77021    60.798369    801.64134    32361.042   -1170.1326    418.37551   -751.75709   -1410.1967    812.75702   -1170.1326            0            0            0            0            0   -572.69291   -25.977626 
  755000    346.26971   -121.42602    794.48594    32652.496   -1162.2759    411.83353   -750.44236    -1398.096    808.78242   -1162.2759            0            0            0            0            0   -572.96232   -25.745751 
  760000    314.35219   -368.29029    804.72218    32237.149   -1194.9906    373.87265   -821.11791   -1429.0674    807.14036   -1194.9906            0            0            0            0            0   -573.06348   -26.077462 
  765000    355.22416    386.49591    825.88263    31411.181   -1230.4521    422.48344   -807.96866   -1461.4399    803.87091   -1230.4521            0            0            0            0            0   -572.88306   -26.763178 
  770000    352.12784   -221.44416    809.56223    32044.416   -1213.4468    418.80086   -794.64594   -1450.7871    810.11003   -1213.4468            0            0            0            0            0   -572.76974   -26.234307 
  775000    348.50697   -95.114129    797.81773    32516.134   -1177.4754    414.49439   -762.98099   -1410.6764    805.93183   -1177.4754            0            0            0            0            0   -572.73079    -25.85372 
  780000    356.58459    212.40546    808.33259    32093.162    -1196.696    424.10146   -772.59457   -1431.6071    807.85341    -1196.696            0            0            0            0            0   -572.94234    -26.19446 
  785000    363.38437   -152.91503    811.07551    31984.628   -1207.5824    432.18873   -775.39367   -1450.8427    816.14064   -1207.5824            0            0            0            0            0   -572.88037   -26.283345 
  790000     326.6537   -191.65716    810.39315    32011.559   -1213.0808    388.50335   -824.57741   -1450.2182    809.97975   -1213.0808            0            0            0            0            0   -572.84228   -26.261233 
  795000    363.60176   -307.30041    792.66525    32727.496   -1156.7821    432.44729   -724.33476   -1395.1565    811.24408   -1156.7821            0            0            0            0            0   -572.86968   -25.686751 
  800000    320.15231   -250.25962    796.95239    32551.441   -1176.6832    380.77098   -795.91224   -1416.0901    812.06617   -1176.6832            0            0            0            0            0   -572.65929   -25.825678 
  805000    337.40616    38.473448    801.15756    32380.583   -1186.8796    401.29173   -785.58792   -1428.0158    813.67645   -1186.8796            0            0            0            0            0   -572.54032   -25.961949 
  810000    340.79506    12.325896    783.63318    33104.709   -1132.5607    405.32229   -727.23841   -1368.8435    808.89604   -1132.5607            0            0            0            0            0   -572.61327   -25.394062 
  815000     374.1421   -23.319991    783.56947    33107.401   -1139.7168    444.98336   -694.73344     -1379.21    812.30668   -1139.7168            0            0            0            0            0   -572.81347   -25.391997 
  820000    335.69458   -295.14129    808.48364    32087.166   -1205.7772    399.25607   -806.52116   -1439.6379    806.74878   -1205.7772            0            0            0            0            0   -572.88807   -26.199355 
  825000    347.10691   -761.63487    796.58469    32566.466   -1197.2359    412.82925   -784.40664   -1432.9984    808.46443   -1197.2359            0            0            0            0            0   -572.70189   -25.813763 
  830000    358.83425    172.17658    820.15189    31630.664   -1232.6138    426.77708   -805.83675   -1461.7587    801.88194   -1232.6138            0            0            0            0            0   -572.73706    -26.57747 
  835000    351.39162   -218.13918    810.41691    32010.621   -1212.0889    417.92524   -794.16366   -1447.0754    807.67667   -1212.0889            0            0            0            0            0   -572.69014   -26.262003 
  840000    358.10639   -186.80083     788.0071    32920.958    -1161.817     425.9114   -735.90558   -1402.4299    813.08524    -1161.817            0            0            0            0            0   -572.47235   -25.535801 
  845000    345.55735    654.26568    824.09228    31479.422   -1208.2048    410.98629   -797.21849   -1435.6971    800.25656   -1208.2048            0            0            0            0            0   -572.76425   -26.705161 
  850000    345.59878   -61.618923    782.31601    33160.447   -1141.2892    411.03556   -730.25362   -1372.1948    803.94884   -1141.2892            0            0            0            0            0   -573.04326   -25.351378 
  855000    345.61562   -147.69599    791.00635    32796.132   -1163.6261    411.05559   -752.57048   -1401.0715    810.06057   -1163.6261            0            0            0            0            0   -572.61514   -25.632993 
  860000    344.75581    79.204986    799.77966     32436.37   -1180.6795    410.03298    -770.6465   -1410.8969     803.0912   -1180.6795            0            0            0            0            0   -572.87375   -25.917297 
  865000    357.70007   -636.81928    804.80201    32233.951   -1211.5063    425.42815   -786.07818   -1446.5078    807.78831   -1211.5063            0            0            0            0            0   -572.78688   -26.080049 
  870000    340.23784   -18.075908    813.59452    31885.599   -1210.2157    404.65957   -805.55614   -1449.3805     812.1386   -1210.2157            0            0            0            0            0   -572.97378   -26.364976 
  875000    381.13303    50.880851    811.51333    31967.372   -1203.8346    453.29799   -750.53661   -1436.9236    805.92061   -1203.8346            0            0            0            0            0   -572.83159   -26.297533 
  880000    329.04922   -332.44501    793.95544    32674.313   -1167.0421    391.35246   -775.68966   -1404.5465    810.22731   -1167.0421            0            0            0            0            0    -572.7229    -25.72856 
  885000    351.10171   -249.68213    780.94725    33218.567   -1137.5141    417.58044   -719.93365   -1376.5956    811.79109   -1137.5141            0            0            0            0            0   -572.70958   -25.307023 
  890000    348.30749    386.84215    816.70424     31764.19   -1212.1516    414.25714   -797.89442   -1444.2301    805.24669   -1212.1516            0            0            0            0            0   -573.16816   -26.465748 
  895000     380.4764     30.74743    819.07337    31672.314   -1226.9011    452.51702    -774.3841   -1452.1908    798.27744   -1226.9011            0            0            0            0            0   -572.98778   -26.542521 
  900000    358.67891   -111.83922    786.79762    32971.565   -1155.5752    426.59232   -728.98291   -1385.4036    802.55435   -1155.5752            0            0            0            0            0   -572.72597   -25.496607 
  905000    347.63157    596.45266    820.60184     31613.32   -1197.1907    413.45324   -783.73748   -1434.4523    809.99191   -1197.1907            0            0            0            0            0   -572.73033   -26.592051 
  910000    368.04291   -201.81473    789.57699    32855.502   -1162.4904    437.72934   -724.76106   -1401.2749    811.42114   -1162.4904            0            0            0            0            0   -572.63669   -25.586674 
  915000    346.59284    168.12345    814.05873    31867.416   -1209.4013    412.21784    -797.1835   -1436.7897    800.03013   -1209.4013            0            0            0            0            0   -572.64176   -26.380018 
  920000    356.79946   -393.96976    791.94024    32757.458   -1187.9141    424.35701   -763.55706   -1417.2943    802.29985   -1187.9141            0            0            0            0            0    -572.9196   -25.663256 
  925000    369.69474   -191.46754    812.15543    31942.098   -1214.6473    439.69392   -774.95342   -1445.1926    803.11353   -1214.6473            0            0            0            0            0   -572.56826   -26.318341 
  930000    362.41714    437.71069    808.45919    32088.136   -1181.4712    431.03837   -750.43284   -1414.4465    805.95237   -1181.4712            0            0            0            0            0   -572.97706   -26.198562 
  935000    370.56534   -515.33297    811.57657    31964.881   -1223.5666    440.72937   -782.83722   -1453.4045    802.70537   -1223.5666            0            0            0            0            0   -572.86749   -26.299583 
  940000    339.42855    113.52772     810.5031    32007.217   -1202.9353    403.69705    -799.2383   -1432.0522    801.94937   -1202.9353            0            0            0            0            0   -572.83248   -26.264796 
  945000    319.31974    420.47581    810.48947    32007.755   -1174.8461    379.78076   -795.06535   -1406.5783    804.54982   -1174.8461            0            0            0            0            0    -572.8176   -26.264355 
  950000    402.62369   -142.54896    783.60328    33105.972   -1147.0954    478.85776   -668.23762   -1385.1217    810.70297   -1147.0954            0            0            0            0            0   -572.67667   -25.393093 
  955000    335.40099     309.0751    828.11696    31326.431   -1245.9279    398.90689   -847.02105   -1467.1427    794.07449   -1245.9279            0            0            0            0            0   -572.85969   -26.835583 
  960000    347.05489    212.64558    812.97256    31909.993   -1207.0267    412.76738   -794.25929   -1433.4575    799.38582   -1207.0267            0            0            0            0            0   -572.95497    -26.34482 
  965000    343.77137   -162.79441    818.07832    31710.838   -1237.5049    408.86214    -828.6428   -1469.6959    805.04709   -1237.5049            0            0            0            0            0   -572.85612   -26.510275 
  970000    348.48411   -60.182036    804.47559     32247.03   -1193.8176     414.4672   -779.35041   -1427.2314    806.12314   -1193.8176            0            0            0            0            0   -572.70931   -26.069472 
  975000    368.93159   -295.59998    794.39754    32656.129    -1170.962    438.78628   -732.17568   -1405.9121     807.7466    -1170.962            0            0            0            0            0    -572.7965   -25.742887 
  980000    357.27569  -0.57117235    814.69804     31842.41   -1209.0528    424.92342   -784.12937   -1441.7887    805.56396   -1209.0528            0            0            0            0            0   -572.82804   -26.400735 
  985000    339.80511   -285.83987    784.83807    33053.887   -1155.2534     404.1449   -751.10852   -1396.3979    813.95068   -1155.2534            0            0            0            0            0   -572.80619   -25.433107 
  990000    345.00657     88.92194    818.46593     31695.82   -1213.3233    410.33122   -802.99207     -1451.78    811.44783   -1213.3233            0            0            0            0            0   -572.99117   -26.522836 
  995000    352.28325     121.2647    802.34654    32332.599   -1175.6618    418.98569   -756.67612   -1409.3365    806.49738   -1175.6618            0            0            0            0            0   -572.82268   -26.000478 
 1000000    340.17218    257.37057    797.89868    32512.836   -1157.6702    404.58147   -753.08874   -1391.0818    806.12165   -1157.6702            0            0            0            0            0   -572.71007   -25.856343 
 1005000    372.79293   -285.60542    799.24271    32458.161   -1191.4909    443.37874   -748.11215     -1426.09    807.46264   -1191.4909            0            0            0            0            0   -572.86357   -25.899897 
 1010000     345.2008   -13.555684    813.03602    31907.502   -1228.4332    410.56223   -817.87095   -1452.0873    796.54181   -1228.4332            0            0            0            0            0   -572.88769   -26.346877 
 1015000    381.19342    66.544611      813.883    31874.297    -1207.824     453.3698   -754.45421   -1441.6675     806.3116    -1207.824            0            0            0            0            0   -572.46812   -26.374324 
 1020000    349.09253   -238.36462    793.32168    32700.416   -1166.7248    415.19082   -751.53395   -1406.3885    812.36121   -1166.7248            0            0            0            0            0    -572.6975   -25.708023 
 1025000    361.63687    92.711324    784.17186    33081.968   -1135.1623    430.11036   -705.05193    -1375.911    813.47802   -1135.1623            0            0            0            0            0   -572.72929   -25.411518 
 1030000    328.04759    266.98208    813.84549    31875.766   -1202.6697    390.16117   -812.50853   -1440.7785    810.80076   -1202.6697            0            0            0            0            0   -572.69191   -26.373108 
 1035000    327.44321    79.877205    798.29078    32496.866   -1170.6485    389.44236   -781.20614   -1402.6853    804.79217   -1170.6485            0            0            0            0            0   -572.75533   -25.869049 
 1040000    337.56572    118.72807    796.58262    32566.551   -1164.9533    401.48149   -763.47182   -1401.4608     809.2298   -1164.9533            0            0            0            0            0   -572.72231   -25.813695 
 1045000    326.09391    328.45516    813.91693    31872.968   -1202.6776    387.83758   -814.84003   -1436.9129    806.94783   -1202.6776            0            0            0            0            0   -572.71258   -26.375423 
 1050000    344.83644      -195.58    782.01977    33173.009   -1144.2416    410.12887   -734.11274   -1386.9256     815.2846   -1144.2416            0            0            0            0            0   -572.60057   -25.341778 
 1055000    347.08515   -75.907617    809.71666    32038.304   -1219.8204    412.80337     -807.017   -1442.2401    795.07031   -1219.8204            0            0            0            0            0    -572.6506   -26.239311 
 1060000    353.69335   -194.82667    815.62752    31806.122   -1221.7317    420.66278   -801.06888   -1451.4923    802.82661   -1221.7317            0            0            0            0            0     -573.066   -26.430856 
 1065000    322.11257    -531.0363      798.928    32470.947   -1197.5841     383.1024   -814.48173   -1433.5859    808.87673   -1197.5841            0            0            0            0            0   -572.87496   -25.889699 
 1070000    329.54972    83.843128    793.27613    32702.293   -1156.0287    391.94772   -764.08097   -1390.2564     807.0362   -1156.0287            0            0            0            0            0   -572.80848   -25.706547 
 1075000    333.14617   -54.708095     808.5483      32084.6   -1204.3462    396.22513   -808.12107   -1439.3761    807.70762   -1204.3462            0            0            0            0            0   -572.67771    -26.20145 
 1080000    342.79477   -273.42247    799.82762    32434.425   -1188.6722    407.70063   -780.97155   -1425.3629    809.61549   -1188.6722            0            0            0            0            0   -572.92479   -25.918851 
 1085000    366.54904   -168.87346    800.72686        32398   -1191.6634    435.95261   -755.71074   -1425.9218    806.95408   -1191.6634            0            0            0            0            0   -572.69563   -25.947992 
 1090000    353.87646    212.89263    789.22114    32870.316   -1154.8437    420.88057   -733.96316   -1390.1177    808.05676   -1154.8437            0            0            0            0            0   -572.78279   -25.575143 
 1095000    375.80211   -202.30834    778.03893    33342.739   -1135.9891    446.95769   -689.03146    -1374.732    811.59343   -1135.9891            0            0            0            0            0   -572.85054   -25.212777 
 1100000    353.84146   -321.93392    788.23502    32911.439   -1172.3913    420.83893    -751.5524   -1408.8504    809.09212   -1172.3913            0            0            0            0            0   -572.63304   -25.543187 
 1105000    379.58693   -259.07243    788.78507    32888.489   -1155.5298    451.45913   -704.07068   -1392.0502    809.48322   -1155.5298            0            0            0            0            0   -572.96285   -25.561011 
 1110000    353.21904    3.5948562      789.866    32843.481   -1159.4006    420.09867   -739.30195   -1396.7575    810.16984   -1159.4006            0            0            0            0            0   -572.81293    -25.59604 
 1115000     349.8091   -236.87971    783.07349     33128.37   -1139.6993    416.04308   -723.65619   -1380.1347    812.91182   -1139.6993            0            0            0            0            0   -572.47639   -25.375925 
 1120000     355.6095   -261.63095    788.90555    32883.466    -1168.517    422.94175   -745.57522   -1404.4159    808.47747    -1168.517            0            0            0            0            0    -572.5785   -25.564916 
 1125000    341.80019    216.44168    793.65318    32686.757   -1154.2232    406.51773   -747.70551   -1390.6872    809.19853   -1154.2232            0            0            0            0            0   -572.73457   -25.718765 
 1130000     358.8677   -138.30959    802.57635     32323.34   -1190.2917    426.81686    -763.4748     -1422.22    804.78188   -1190.2917            0            0            0            0            0   -572.85357   -26.007926 
 1135000    337.51212    23.371008     825.4669        31427   -1254.8472    401.41775    -853.4295   -1478.9392     796.9323   -1254.8472            0            0            0            0            0   -572.84033   -26.749706 
 1140000    336.87922    268.72782    786.12156     32999.92   -1141.0323    400.66502   -740.36726   -1375.4985    807.29685   -1141.0323            0            0            0            0            0   -572.83063   -25.474699 
 1145000    344.51944    124.53969    800.93314    32389.655   -1177.5968    409.75186   -767.84492   -1408.4326     803.7603   -1177.5968            0            0            0            0            0   -572.92445   -25.954677 
 1150000    321.74774   -201.02751    805.80155    32193.967   -1201.7911     382.6685    -819.1226   -1441.8707    812.76227   -1201.7911            0            0            0            0            0   -572.68265    -26.11244 
 1155000    336.59359    576.55749    826.99126    31369.072   -1234.4708     400.3253   -834.14548     -1464.58    803.10647   -1234.4708            0            0            0            0            0   -572.99728   -26.799104 
 1160000    343.67402    121.14962    811.64166    31962.318   -1213.2463    408.74636   -804.49994   -1442.1104     801.5152   -1213.2463            0            0            0            0            0    -572.6511   -26.301692 
 1165000    355.22936    226.84837    809.80675     32034.74   -1198.9442    422.48962   -776.45454   -1430.6045    804.52965   -1198.9442            0            0            0            0            0   -572.86931    -26.24223 
 1170000    351.57514   -171.83477    810.16998    32020.377   -1205.9195    418.14351   -787.77595   -1443.3421    810.25316   -1205.9195            0            0            0            0            0   -572.83057   -26.254001 
 1175000    338.46067   -168.69399    788.41958    32903.734   -1163.9366     402.5459   -761.39073   -1399.4856    808.30583   -1163.9366            0            0            0            0            0   -572.75689   -25.549168 
 1180000    356.01641    350.37932    807.90093    32110.309   -1193.8179     423.4257   -770.39219    -1423.199     802.1264   -1193.8179            0            0            0            0            0   -572.74532   -26.180472 
 1185000    354.13447    -258.1545    806.87226    32151.246   -1207.9955    421.18743   -786.80805   -1437.6005    802.29568   -1207.9955            0            0            0            0            0   -572.69061   -26.147137 
 1190000    345.27934   -194.18718    821.00235    31597.898   -1235.5328    410.65564   -824.87721   -1469.9189    807.09688   -1235.5328            0            0            0            0            0   -572.71079    -26.60503 
 1195000    353.71453   -20.000438    775.74417    33441.371   -1121.7483    420.68797   -701.06031   -1352.5706    803.57547   -1121.7483            0            0            0            0            0   -572.75316   -25.138414 
 1200000    337.81711    448.09151    812.72373    31919.763   -1194.1114    401.78048   -792.33093   -1431.6255    810.28504   -1194.1114            0            0            0            0            0   -572.77097   -26.336757 
 1205000    350.58333   -11.542865    809.16598    32060.108   -1195.6055    416.96391   -778.64163    -1427.149     804.3558   -1195.6055            0            0            0            0            0   -572.81234   -26.221466 
 1210000    348.83245   -19.007398    794.86278    32637.015   -1166.5008    414.88151    -751.6193   -1401.7059    807.89757   -1166.5008            0            0            0            0            0    -572.6925   -25.757963 
 1215000    346.16235    175.62153    815.72851    31802.184   -1211.3743    411.70584   -799.66841   -1452.6385    814.09094   -1211.3743            0            0            0            0            0   -572.82672   -26.434129 
 1220000    347.42381    181.78787    793.24412    32703.613   -1159.0381    413.20615   -745.83192   -1395.3999    809.02009   -1159.0381            0            0            0            0            0   -572.65828    -25.70551 
 1225000    338.02285   -491.26864    801.62085    32361.869   -1198.8706    402.02518   -796.84545   -1431.0469    804.79002   -1198.8706            0            0            0            0            0    -572.6138   -25.976962 
 1230000    355.59908   -38.126411     824.1708    31476.423    -1248.045    422.92935   -825.11563   -1475.3837    800.07198    -1248.045            0            0            0            0            0   -572.73331   -26.707706 
 1235000    325.13453    324.06041     817.7785    31722.463    -1211.592    386.69654   -824.89548   -1451.0392    812.40948    -1211.592            0            0            0            0            0   -572.96227    -26.50056 
 1240000    356.18817   -97.123502    813.48697    31889.815   -1213.6013    423.62998   -789.97129   -1451.3223    810.20148   -1213.6013            0            0            0            0            0   -572.48049    -26.36149 
 1245000    329.08993   -17.715848    797.51457    32528.495   -1170.9329    391.40087   -779.53206   -1405.7859    807.60045   -1170.9329            0            0            0            0            0   -572.74746   -25.843896 
 1250000    356.31468    468.02369    813.23205    31899.811   -1200.6778    423.78045   -776.89737   -1432.8705    805.07286   -1200.6778            0            0            0            0            0    -572.8802   -26.353229 
 1255000    364.15382    204.56388     816.7568    31762.146   -1207.0777    433.10388   -773.97382   -1442.5203    808.13404   -1207.0777            0            0            0            0            0   -572.69146   -26.467451 
 1260000    370.18465    199.61266    801.13854    32381.352   -1203.6432     440.2766   -763.36659   -1426.4296    795.37895   -1203.6432            0            0            0            0            0   -572.59257   -25.961332 
 1265000      362.191   -182.29851    804.02543    32265.085    -1204.322    430.76941   -773.55255   -1431.7895    800.12718    -1204.322            0            0            0            0            0   -572.65968   -26.054884 
 1270000    345.22776    169.88927    808.92553    32069.638   -1191.1401     410.5943   -780.54582   -1430.7131    812.35953   -1191.1401            0            0            0            0            0   -572.78655   -26.213674 
 1275000    340.21404   -617.53351    793.60739    32688.643    -1184.038    404.63126   -779.40674   -1412.9602    801.96024    -1184.038            0            0            0            0            0   -573.03803   -25.717282 
 1280000    339.57415    226.31431    814.90441    31834.345   -1207.7184    403.87021   -803.84815   -1439.0274    804.16683   -1207.7184            0            0            0            0            0   -572.85781   -26.407423 
 1285000    344.68446   -419.16952    803.68133    32278.899   -1204.4334    409.94813   -794.48528    -1435.555    804.00982   -1204.4334            0            0            0            0            0   -572.88821   -26.043733 
 1290000    334.42244    74.261546    794.23638    32662.755   -1165.0107    397.74305   -767.26769   -1405.7381    813.38255   -1165.0107            0            0            0            0            0   -572.65518   -25.737664 
 1295000    348.21612    187.17852    803.43175    32288.926   -1178.3584    414.14847   -764.20995   -1414.2641    808.81058   -1178.3584            0            0            0            0            0   -572.90489   -26.035645 
 1300000    363.49468    15.302865    806.67384    32159.154   -1181.0636    432.31993   -748.74366    -1425.096    816.93978   -1181.0636            0            0            0            0            0   -572.90742   -26.140707 
 1305000    341.53379   -45.849001    798.30202    32496.409   -1188.3616     406.2009   -782.16067   -1413.3419    797.59602   -1188.3616            0            0            0            0            0   -572.61568   -25.869414 
 1310000    359.86984    -222.9112    821.01964    31597.233   -1251.7813    428.00875   -823.77251   -1484.0563    805.38196   -1251.7813            0            0            0            0            0    -573.1069   -26.605591 
 1315000    378.66907    31.702443    806.90626    32149.891   -1196.8962    450.36748   -746.52869   -1429.1156    805.04127   -1196.8962            0            0            0            0            0   -572.82182   -26.148239 
 1320000    352.74321   -210.50095    790.92614    32799.458   -1160.9957    419.53274   -741.46293   -1398.1311    809.61602   -1160.9957            0            0            0            0            0   -572.48055   -25.630394 
 1325000    352.43992    368.93603    820.27603    31625.877   -1205.9221    419.17203   -786.75006   -1449.3982    816.34071   -1205.9221            0            0            0            0            0   -572.86455   -26.581493 
 1330000    368.56724   -167.22533    806.31259    32173.563   -1199.5802    438.35294   -761.22724   -1432.0858    805.21086   -1199.5802            0            0            0            0            0   -572.70523      -26.129 
 1335000    316.70495   -247.59814      803.354    32292.051   -1189.2859    376.67088   -812.61506   -1429.0477    812.61475   -1189.2859            0            0            0            0            0   -572.85299   -26.033126 
 1340000    339.90376    -231.2286    794.35038    32658.068   -1177.8047    404.26223   -773.54247   -1416.5505    811.42389   -1177.8047            0            0            0            0            0    -572.6781   -25.741358 
 1345000    341.19862   -20.442013    785.30243    33034.341   -1144.0388    405.80226   -738.23658   -1385.4253    814.18036   -1144.0388            0            0            0            0            0    -572.7939   -25.448155 
 1350000    327.57125    142.41629    815.85723    31797.167   -1198.2542    389.59464   -808.65951   -1437.9136    812.42439   -1198.2542            0            0            0            0            0   -572.76496     -26.4383 
 1355000    358.58111    353.34076    797.22252    32540.411   -1162.6024      426.476   -736.12639   -1398.9553    809.11191   -1162.6024            0            0            0            0            0   -572.75898   -25.834432 
 1360000    345.27414    5.7774518    814.94433    31832.786   -1213.7493    410.64945   -803.09989   -1445.2555    804.35128   -1213.7493            0            0            0            0            0   -572.84515   -26.408717 
 1365000    355.77111   -280.79612    782.92657    33134.587   -1148.6872    423.13395   -725.55323   -1384.8959    809.06753   -1148.6872            0            0            0            0            0   -572.85883   -25.371164 
 1370000    343.87159    308.53257    817.50465     31733.09   -1226.6693    408.98134   -817.68791   -1456.9591     803.0487   -1226.6693            0            0            0            0            0   -572.75885   -26.491685 
 1375000    328.02209    39.806381    795.38543    32615.569   -1163.8214    390.13085   -773.69054   -1398.4751    807.38374   -1163.8214            0            0            0            0            0   -572.73006     -25.7749 
 1380000    366.56178   -166.47885    809.82174    32034.147   -1197.7457    435.96777   -761.77794   -1433.5458    808.35033   -1197.7457            0            0            0            0            0   -572.55021   -26.242716 
 1385000    331.43978    388.69793    816.74989    31762.414   -1210.3456    394.19566    -816.1499   -1436.0809    798.55586   -1210.3456            0            0            0            0            0    -572.8205   -26.467227 
 1390000    335.25406   -132.29333    809.35866    32052.475   -1209.6129    398.73214   -810.88078   -1445.3627    808.57466   -1209.6129            0            0            0            0            0   -572.82491    -26.22771 
 1395000    351.32618   -594.40558    802.66568    32319.743   -1195.4762     417.8474   -777.62883   -1443.3222    820.68876   -1195.4762            0            0            0            0            0   -572.84283    -26.01082 
 1400000    341.14221     135.6527    829.71928    31265.935   -1258.8087    405.73517   -853.07353   -1487.3091    801.33384   -1258.8087            0            0            0            0            0   -572.83342   -26.887507 
 1405000    344.27471    99.765859    821.74851    31569.207   -1231.7289    409.46079   -822.26807   -1461.6443    802.45744   -1231.7289            0            0            0            0            0   -572.54198    -26.62921 
 1410000    346.25065    87.982571    794.03478    32671.048   -1160.7828    411.81086   -748.97193    -1385.237    797.43737   -1160.7828            0            0            0            0            0   -572.98313   -25.731131 
 1415000    346.18297    127.55684    815.89703    31795.616   -1210.9309    411.73036   -799.20054   -1446.8989    808.73174   -1210.9309            0            0            0            0            0   -572.76375   -26.439589 
 1420000    363.80159    -158.2414    816.42303    31775.131   -1233.3728    432.68495   -800.68781   -1457.8949    797.34076   -1233.3728            0            0            0            0            0   -572.81865   -26.456635 
 1425000    339.58394    193.07311    805.35594     32211.78   -1177.9295    403.88186   -774.04762   -1418.4853    813.22167   -1177.9295            0            0            0            0            0   -572.66584      -26.098 
 1430000    354.67108    73.765873    807.65143    32120.229   -1206.8595    421.82564   -785.03388    -1438.245    804.08362   -1206.8595            0            0            0            0            0   -572.69809   -26.172386 
 1435000    338.63287   -409.27933    807.00062    32146.132    -1209.164     402.7507   -806.41326   -1439.8377    803.81178    -1209.164            0            0            0            0            0   -573.13805   -26.151296 
 1440000    354.15072     -307.205    813.60103    31885.344   -1222.6265    421.20675   -801.41974   -1457.8319    807.86725   -1222.6265            0            0            0            0            0   -572.66186   -26.365186 
 1445000    344.43223    386.81126    797.36845    32534.456   -1166.2603    409.64813   -756.61217   -1397.0948    803.60305   -1166.2603            0            0            0            0            0   -572.76854   -25.839161 
 1450000    322.69606    293.64622    817.59045     31729.76   -1219.1658    383.79637   -835.36943   -1448.1971    801.86945   -1219.1658            0            0            0            0            0   -572.83815   -26.494466 
 1455000    326.35301   -228.88494     798.5786    32485.154   -1195.3656    388.14573   -807.21985   -1419.4494    797.16113   -1195.3656            0            0            0            0            0   -573.07733   -25.878376 
 1460000    356.81948    22.884538    784.90363    33051.126   -1165.9871    424.38082   -741.60631   -1397.1972    803.98143   -1165.9871            0            0            0            0            0   -572.77138   -25.435231 
 1465000    356.76258   -229.45543    799.76094    32437.129   -1188.8757    424.31315    -764.5625   -1427.5402    811.24088   -1188.8757            0            0            0            0            0   -572.57632   -25.916691 
 1470000    338.49639    236.00474    790.58179    32813.744   -1146.7069    402.58838    -744.1185   -1385.9472    812.07819   -1146.7069            0            0            0            0            0   -572.83786   -25.619235 
 1475000    355.93959    238.50393    812.57676    31925.536   -1205.9541    423.33434   -782.61971   -1430.8027    797.73539   -1205.9541            0            0            0            0            0   -572.88671   -26.331994 
 1480000     323.5394    -44.13349    789.53046    32857.439   -1145.2836    384.79939   -760.48425   -1384.2197    811.68608   -1145.2836            0            0            0            0            0   -572.75002   -25.585166 
 1485000    354.08755    98.535204    788.83986    32886.204   -1154.1212    421.13162   -732.98958    -1383.626    802.30423   -1154.1212            0            0            0            0            0   -572.79943   -25.562787 
 1490000    322.17071    219.86257    802.97114    32307.449   -1180.7854    383.17155   -797.61383   -1419.5031    811.32751   -1180.7854            0            0            0            0            0   -572.60976   -26.020719 
 1495000     352.7634    94.585212    815.65228    31805.157   -1214.9978    419.55676   -795.44101   -1457.0376    814.78565   -1214.9978            0            0            0            0            0    -572.7458   -26.431658 
 1500000    394.74574   -44.397977     799.7052     32439.39   -1181.8966    469.48817   -712.40843   -1417.9517     808.8806   -1181.8966            0            0            0            0            0   -572.82552   -25.914884 
 1505000    351.42994   -32.134183    809.89993    32031.054   -1200.3502    417.97081    -782.3794   -1434.9897    807.30509   -1200.3502            0            0            0            0            0   -572.66558    -26.24525 
 1510000    354.96124   -408.13117    791.67862    32768.282   -1171.6028    422.17074   -749.43208   -1408.5191    809.48491   -1171.6028            0            0            0            0            0   -572.56863   -25.654779 
 1515000    355.36991   -18.215297    820.67473    31610.512   -1230.1293    422.65679   -807.47251    -1462.708    805.48289   -1230.1293            0            0            0            0            0   -572.90423   -26.594413 
 1520000     334.9075   -242.48033    794.16069    32665.868   -1173.5343    398.31996   -775.21435   -1408.8608    808.06556   -1173.5343            0            0            0            0            0    -572.7391   -25.735211 
 1525000    353.58176    18.415427    809.42265    32049.942   -1205.9704    420.53007   -785.44038   -1435.9426    802.53106   -1205.9704            0            0            0            0            0   -572.55895   -26.229784 
 1530000    332.13423   -517.54249    799.54765    32445.782   -1191.0329    395.02159   -796.01135   -1424.6525    806.63151   -1191.0329            0            0            0            0            0   -573.01192   -25.909779 
 1535000    353.93711   -129.57654    803.78604    32274.694   -1197.2457     420.9527   -776.29302   -1430.5023    806.09587   -1197.2457            0            0            0            0            0   -572.83929   -26.047126 
 1540000    343.33812   -116.52828    801.41506    32370.179   -1181.5923    408.34686   -773.24546   -1417.2995    808.70512   -1181.5923            0            0            0            0            0   -572.99797   -25.970293 
 1545000    342.69576   -268.83425    793.10896    32709.186   -1183.7123    407.58288   -776.12944    -1407.249     796.3566   -1183.7123            0            0            0            0            0   -572.81997    -25.70113 
 1550000    343.44973    132.34383    798.06475     32506.07    -1172.023     408.4796   -763.54336   -1406.3518    807.20942    -1172.023            0            0            0            0            0   -572.88061   -25.861725 
 1555000    331.68364   -17.864611    801.03483    32385.544   -1181.8257    394.48568   -787.34004   -1415.0731    806.29501   -1181.8257            0            0            0            0            0   -573.04766   -25.957972 
 1560000    351.52841    425.60275     794.6313    32646.522   -1158.2173    418.08792   -740.12941   -1385.2693    799.67382   -1158.2173            0            0            0            0            0   -572.62191   -25.750462 
 1565000    339.82514      374.534    814.35275    31855.911   -1198.4012    404.16873   -794.23245   -1430.1409     804.4874   -1198.4012            0            0            0            0            0   -572.74765   -26.389546 
 1570000     346.9845    224.02605    837.96861    30958.139   -1267.6026    412.68366   -854.91897   -1498.0097    803.26939   -1267.6026            0            0            0            0            0   -572.86228   -27.154831 
 1575000    319.80031    32.755924    823.36535    31507.214   -1231.2375    380.35233   -850.88515   -1461.2573    803.00124   -1231.2375            0            0            0            0            0    -572.9814   -26.681605 
 1580000    339.43254    252.56028    820.50608     31617.01   -1229.5239    403.70179   -825.82207   -1460.4346    803.50634   -1229.5239            0            0            0            0            0    -572.5956   -26.588948 
 1585000    341.92035   -87.450878    789.41406    32862.283   -1159.4441    406.66065   -752.78343   -1393.3313    806.57502   -1159.4441            0            0            0            0            0   -572.68776   -25.581394 
 1590000    348.56793    392.35898    804.82014    32233.225   -1179.5636    414.56691   -764.99669   -1414.2008    807.08859   -1179.5636            0            0            0            0            0   -572.45135   -26.080637 
 1595000    350.98648   -817.30864    801.33079    32373.583   -1222.5137    417.44338   -805.07029   -1449.4389    799.56609   -1222.5137            0            0            0            0            0    -572.6409   -25.967563 
[...]
 4600000    354.97267    109.61492    809.99606    32027.253   -1195.8515    422.18434   -773.66713   -1427.3963    804.30337   -1195.8515            0            0            0            0            0   -572.75859   -26.248365 
 4605000    330.82608   -67.396466    790.33873    32823.836   -1162.3454    393.46575    -768.8796    -1390.405    800.87803   -1162.3454            0            0            0            0            0   -572.81833   -25.611359 
 4610000    382.08645    866.34892    804.74434    32236.261   -1152.3554    454.43192   -697.92345   -1392.7793    813.09463   -1152.3554            0            0            0            0            0   -572.67074   -26.078181 
 4615000    362.33502   -269.50293    808.39113    32090.838   -1208.6869    430.94069   -777.74625   -1449.9329    813.95357   -1208.6869            0            0            0            0            0   -572.70758   -26.196357 
 4620000    340.33459    194.17722    811.77625    31957.018   -1203.9085    404.77464   -799.13383    -1430.597     799.6442   -1203.9085            0            0            0            0            0   -572.95568   -26.306053 
 4625000    341.16645   -331.23872    805.92727    32188.945   -1207.6637      405.764    -801.8997    -1440.279    805.64501   -1207.6637            0            0            0            0            0   -573.02972   -26.116514 
 4630000    352.95981    266.48142    796.90221    32553.491   -1161.6748    419.79035   -741.88441   -1399.7029    810.89304   -1161.6748            0            0            0            0            0   -572.86493   -25.824052 
 4635000    347.05375   -289.75746    785.22214    33037.719   -1146.4901    412.76602   -733.72407   -1380.6363    807.04383   -1146.4901            0            0            0            0            0   -572.89763   -25.445553 
 4640000    337.12643     491.5096    818.14331    31708.318   -1201.5326    400.95904   -800.57356   -1435.8356    806.85897   -1201.5326            0            0            0            0            0   -572.55599   -26.512382 
 4645000    344.75893   -227.96153    805.04438    32224.246   -1203.9185    410.03669    -793.8818   -1435.8975    804.82593   -1203.9185            0            0            0            0            0   -572.84688   -26.087903 
 4650000    362.84926   -353.10304    784.30936    33076.168   -1144.6289    431.55231   -713.07662   -1383.9055     812.0285   -1144.6289            0            0            0            0            0   -572.75198   -25.415974 
 4655000    342.37757    357.65608    805.40177    32209.948   -1191.4803    407.20443   -784.27589   -1420.9188    802.12592   -1191.4803            0            0            0            0            0   -572.68744   -26.099485 
 4660000    354.25133    392.86758     810.8233    31994.577   -1187.1467    421.32641   -765.82028   -1416.9486    802.34532   -1187.1467            0            0            0            0            0   -572.54343   -26.275172 
 4665000    337.15872   -386.86968    801.65016    32360.686   -1190.8152    400.99744   -789.81778   -1426.0301    808.03984   -1190.8152            0            0            0            0            0   -572.82498   -25.977912 
 4670000    319.46623    239.75341     805.7142    32197.457   -1178.4147    379.95499   -798.45968   -1422.0656    816.20403   -1178.4147            0            0            0            0            0   -572.55305   -26.109609 
 4675000    378.63072    373.00847     810.8835    31992.202   -1187.6081    450.32187   -737.28626   -1420.5017    805.60558   -1187.6081            0            0            0            0            0   -572.71202   -26.277123 
 4680000    357.45862    228.92055      799.205    32459.693    -1173.726    425.14099   -748.58502    -1407.438    806.32837    -1173.726            0            0            0            0            0   -572.61635   -25.898675 
 4685000    353.44601    361.73568    800.84228    32393.331   -1158.0671    420.36861   -737.69849   -1401.1159    815.52566   -1158.0671            0            0            0            0            0   -572.47682   -25.951732 
 4690000    354.59788    697.34827    819.94493    31638.648   -1199.3041    421.73858   -777.56553    -1434.878    808.23338   -1199.3041            0            0            0            0            0   -572.65949   -26.570764 
 4695000    336.61807    151.36023    802.77565    32315.316   -1172.8923    400.35441    -772.5379   -1411.8645    811.89643   -1172.8923            0            0            0            0            0   -572.92429   -26.014384 
 4700000    371.14986    193.19616    804.98871    32226.475   -1190.1521    441.42456   -748.72754   -1426.5933    809.02198   -1190.1521            0            0            0            0            0    -572.5808   -26.086099 
 4705000    341.18941   -160.01497    803.56136    32283.718   -1204.2907    405.79131   -798.49939   -1436.2845    804.66312   -1204.2907            0            0            0            0            0   -572.66927   -26.039845 
 4710000    386.33698   -555.22889    812.03214    31946.948   -1231.8812    459.48727   -772.39398   -1467.1583    808.15564   -1231.8812            0            0            0            0            0   -572.87861   -26.314345 
 4715000    321.22682    88.688596    815.57931    31808.002   -1217.2183    382.04893   -835.16941    -1452.447    807.97722   -1217.2183            0            0            0            0            0    -572.7486   -26.429294 
 4720000    345.01265   -158.79159    787.46198    32943.748   -1149.1325    410.33845   -738.79408   -1388.1775    811.92457   -1149.1325            0            0            0            0            0   -572.87957   -25.518136 
 4725000    317.89489   -87.079838    802.34988    32332.464   -1193.0418    378.08613   -814.95562   -1427.4456    807.31911   -1193.0418            0            0            0            0            0   -572.91524   -26.000587 
 4730000     341.3069    99.224421    799.64839    32441.694   -1161.8197    405.93104   -755.88862    -1401.491    812.47685   -1161.8197            0            0            0            0            0   -572.80552   -25.913043 
 4735000       362.08    -165.1899    822.91261    31524.549   -1239.0455    430.63739   -808.40813   -1471.3082    805.28283   -1239.0455            0            0            0            0            0   -573.02011   -26.666933 
 4740000     346.0229     29.22468     801.1986    32378.924   -1175.6593    411.53998   -764.11937   -1407.8821    805.07683   -1175.6593            0            0            0            0            0   -572.85407   -25.963279 
 4745000    362.29341   -363.14697    810.17561    32020.155    -1219.677     430.8912   -788.78576   -1453.2994    806.34233    -1219.677            0            0            0            0            0   -572.71993   -26.254184 
 4750000    335.65839   -88.351467    820.06059    31634.185   -1228.4073    399.21303   -829.19431   -1455.6318    800.19846   -1228.4073            0            0            0            0            0   -572.97403   -26.574512 
 4755000    344.74089    228.90194    806.22388    32177.103   -1174.1626    410.01524   -764.14739   -1416.4741    815.08979   -1174.1626            0            0            0            0            0   -572.77837   -26.126126 
 4760000    337.92555   -111.21184    817.75105    31723.528   -1229.6447    401.90946   -827.73528   -1462.2754    805.46021   -1229.6447            0            0            0            0            0   -572.82958    -26.49967 
 4765000    357.11408    387.68711    819.56688    31653.242   -1211.2135     424.7312   -786.48234   -1442.0776     803.4034   -1211.2135            0            0            0            0            0   -572.53938   -26.558513 
 4770000    349.79797     -273.055    799.08265    32464.663   -1185.0939    416.02985   -769.06405    -1423.171    810.83388   -1185.0939            0            0            0            0            0   -572.75678    -25.89471 
 4775000    326.08202    220.94644    816.46515    31773.492   -1221.4896    387.82344   -833.66621   -1448.6231    799.89357   -1221.4896            0            0            0            0            0   -572.76016      -26.458 
 4780000    362.16332   -91.801055    814.45239    31852.014   -1225.4268    430.73648   -794.69028   -1463.7497    811.28181   -1225.4268            0            0            0            0            0   -572.95888   -26.392775 
 4785000    350.60334   -60.790166    799.26467    32457.269   -1181.1032    416.98771   -764.11548    -1410.763    802.75046   -1181.1032            0            0            0            0            0   -573.09061   -25.900609 
 4790000    348.48968    19.968166    804.37783     32250.95   -1188.8175    414.47384    -774.3437    -1415.516    799.65527   -1188.8175            0            0            0            0            0   -572.95678   -26.066303 
 4795000    353.27772   -52.583639    812.49216     31928.86   -1204.7845    420.16846   -784.61606   -1440.5617    808.52761   -1204.7845            0            0            0            0            0   -572.75044   -26.329253 
 4800000    345.27951   -10.491472    801.26325    32376.312   -1180.8945    410.65584   -770.23863   -1417.0883    808.99425   -1180.8945            0            0            0            0            0    -572.8004   -25.965374 
 4805000    334.00247   -211.96721    803.67913    32278.988   -1194.1794    397.24357   -796.93587   -1433.1005    811.77379   -1194.1794            0            0            0            0            0   -572.85271   -26.043662 
 4810000    348.15717    227.04555    813.57907    31886.204   -1204.5068    414.07837   -790.42841   -1435.4347    803.62168   -1204.5068            0            0            0            0            0   -572.69373   -26.364475 
 4815000    323.17374    65.905123    793.03286    32712.325   -1148.4066    384.36449   -764.04213   -1391.3423    815.69689   -1148.4066            0            0            0            0            0   -572.76121   -25.698664 
 4820000    338.37682   -378.86122    814.37811    31854.919   -1239.8145    402.44618   -837.36836   -1468.4575    801.40049   -1239.8145            0            0            0            0            0   -572.75753   -26.390368 
 4825000    355.84812   -25.253491    807.22914    32137.032    -1197.426    423.22555   -774.20041    -1422.362    797.75446    -1197.426            0            0            0            0            0   -572.81845   -26.158702 
 4830000    333.67881   -593.31548    800.33359     32413.92   -1202.5369    396.85863   -805.67829   -1436.5791    806.80351   -1202.5369            0            0            0            0            0   -572.76134   -25.935248 
 4835000    363.56891   -99.296772    785.90591    33008.975   -1148.1072    432.40821   -715.69897   -1384.2281    808.82628   -1148.1072            0            0            0            0            0   -572.70539   -25.467711 
 4840000     335.5756    481.50938    813.88837    31874.087   -1186.9042    399.11456   -787.78964   -1433.4906     819.6163   -1186.9042            0            0            0            0            0    -573.0299   -26.374498 
 4845000    369.52759    159.49306    802.28403    32335.118   -1177.8174    439.49513   -738.32227   -1414.8587    810.03939   -1177.8174            0            0            0            0            0   -572.99812   -25.998453 
 4850000    361.31405    72.731338    805.68285     32198.71   -1190.7475    429.72641   -761.02108   -1428.0243    809.98083   -1190.7475            0            0            0            0            0   -572.70403   -26.108593 
 4855000    340.21578    285.04289    824.57397    31461.033   -1228.8901    404.63333   -824.25677   -1454.4746    798.40396   -1228.8901            0            0            0            0            0   -572.81949   -26.720771 
 4860000    366.70507    -116.8518    809.43162    32049.586   -1200.4874    436.13819   -764.34921   -1432.2516    804.49917   -1200.4874            0            0            0            0            0   -572.73498   -26.230074 
 4865000    329.02715   -91.871872    792.06944    32752.114   -1169.8226    391.32621   -778.49637   -1405.9745    808.88077   -1169.8226            0            0            0            0            0   -572.72884   -25.667443 
 4870000    352.75993    155.16262    816.26515    31781.277   -1213.0005    419.55263   -793.44785   -1447.2325    807.15851   -1213.0005            0            0            0            0            0   -572.92652   -26.451518 
 4875000    337.31517   -198.96637    807.82565    32113.302   -1208.2181    401.18351   -807.03459   -1443.5306    808.08007   -1208.2181            0            0            0            0            0   -572.76756   -26.178032 
 4880000    343.56742    137.35344    808.96193    32068.195   -1206.4617    408.61958   -797.84207   -1442.2069    808.63218   -1206.4617            0            0            0            0            0   -572.88693   -26.214854 
 4885000    360.46737   -277.35474    791.61349    32770.978   -1167.7032    428.71942    -738.9838    -1403.903    808.83353   -1167.7032            0            0            0            0            0   -572.63377   -25.652668 
 4890000    342.00983   -54.486714    787.70879    32933.425   -1157.6293    406.76707   -750.86227   -1401.1662    816.39584   -1157.6293            0            0            0            0            0   -572.85901   -25.526134 
 4895000    317.29984    149.95103    818.07864    31710.825   -1226.5352     377.3784    -849.1568    -1459.872    805.99664   -1226.5352            0            0            0            0            0   -572.65987   -26.510286 
 4900000    356.20902   -113.65264    811.89625    31952.295   -1214.0596    423.65479   -790.40486   -1444.5334    803.14473   -1214.0596            0            0            0            0            0   -572.67098   -26.309942 
 4905000    351.97897   -131.63887      785.084    33043.532   -1148.8766     418.6238   -730.25285   -1379.5542    803.53334   -1148.8766            0            0            0            0            0   -572.85581   -25.441077 
 4910000    348.21491    17.370288     796.7591    32559.338   -1170.8576    414.14704   -756.71055   -1402.2881    804.39321   -1170.8576            0            0            0            0            0   -572.96269   -25.819414 
 4915000    340.74865   -89.578158    816.95447    31754.461   -1221.3293     405.2671   -816.06217   -1458.6424    810.02877   -1221.3293            0            0            0            0            0    -572.7156   -26.473856 
 4920000    315.76364    466.89856    811.80914    31955.724   -1200.9829    375.55135   -825.43157   -1432.2073    803.95578   -1200.9829            0            0            0            0            0   -572.73145   -26.307119 
 4925000    344.80145   -111.27443    771.99799    33603.648   -1114.2144    410.08727   -704.12717   -1350.3468    808.82251   -1114.2144            0            0            0            0            0   -572.69011   -25.017017 
 4930000    360.68214   -222.66066    810.65108    32001.374   -1224.7809    428.97485   -795.80602    -1455.382    803.28062   -1224.7809            0            0            0            0            0   -572.67953   -26.269592 
 4935000    351.48578    347.99408    810.49991    32007.343   -1183.4187    418.03723   -765.38143   -1426.3002    815.58775   -1183.4187            0            0            0            0            0   -572.70618   -26.264693 
 4940000    341.78901    133.97768     804.8888    32230.475   -1199.2412    406.50444   -792.73673   -1426.0841    799.71891   -1199.2412            0            0            0            0            0   -572.87601   -26.082862 
 4945000    322.30978    192.20521    818.93279    31677.751    -1210.313    383.33695   -826.97608   -1442.7945    805.53956    -1210.313            0            0            0            0            0   -573.05805   -26.537965 
 4950000    335.98703    6.2932542    815.86957    31796.686   -1210.3667    399.60389   -810.76282   -1448.2143    810.61474   -1210.3667            0            0            0            0            0   -572.76713     -26.4387 
 4955000     350.7169   -119.80072    799.26148    32457.399   -1185.6012    417.12276   -768.47848   -1419.6678    806.65981   -1185.6012            0            0            0            0            0   -572.59327   -25.900506 
 4960000    334.98905   -43.181137    800.25247    32417.205   -1191.9187    398.41695   -793.50175   -1427.9779    808.28629   -1191.9187            0            0            0            0            0   -572.22706   -25.932619 
 4965000    336.50686     329.4055    818.80818    31682.572   -1211.9975    400.22215   -811.77536   -1447.2246    808.10647   -1211.9975            0            0            0            0            0   -572.87934   -26.533927 
 4970000    340.53449    834.73686    812.07846    31945.126   -1180.0269    405.01239   -775.01452   -1411.7069    804.52216   -1180.0269            0            0            0            0            0   -572.84217   -26.315846 
 4975000    353.74267      409.301    818.23753    31704.667   -1212.7234    420.72145     -792.002   -1451.8048     812.0277   -1212.7234            0            0            0            0            0   -572.94631   -26.515435 
 4980000    356.63459    244.10554    799.42724    32450.669   -1165.4149    424.16093   -741.25397   -1404.6282    811.90483   -1165.4149            0            0            0            0            0   -572.69148   -25.905877 
 4985000     373.5097    266.16501    821.64527    31573.174   -1219.8357    444.23122   -775.60443   -1450.4723    803.46881   -1219.8357            0            0            0            0            0    -572.8322   -26.625864 
 4990000    382.28941   -10.346158    793.27041    32702.529   -1174.4012    454.67331   -719.72785   -1405.8372    804.16826   -1174.4012            0            0            0            0            0   -572.73221   -25.706362 
 4995000    353.73831    211.64924    787.25134    32952.562   -1146.2654    420.71626   -725.54911   -1379.8525      805.926   -1146.2654            0            0            0            0            0   -572.33887    -25.51131 
 5000000    322.69779    105.19535    798.46235    32489.883   -1171.7815    383.79842   -787.98307   -1399.7081    800.75717   -1171.7815            0            0            0            0            0   -572.83056   -25.874609 
Loop time of 267913 on 1 procs for 5000000 steps with 2400 atoms

Performance: 1.612 ns/day, 14.884 hours/ns, 18.663 timesteps/s
100.0% CPU use with 1 MPI tasks x 1 OpenMP threads

MPI task timing breakdown:
Section |  min time  |  avg time  |  max time  |%varavg| %total
---------------------------------------------------------------
Pair    | 2.4599e+05 | 2.4599e+05 | 2.4599e+05 |   0.0 | 91.82
Bond    | 10.863     | 10.863     | 10.863     |   0.0 |  0.00
Kspace  | 8737.4     | 8737.4     | 8737.4     |   0.0 |  3.26
Neigh   | 8000.4     | 8000.4     | 8000.4     |   0.0 |  2.99
Comm    | 789.63     | 789.63     | 789.63     |   0.0 |  0.29
Output  | 0.085858   | 0.085858   | 0.085858   |   0.0 |  0.00
Modify  | 4223.4     | 4223.4     | 4223.4     |   0.0 |  1.58
Other   |            | 162.8      |            |       |  0.06

Nlocal:        2400.00 ave        2400 max        2400 min
Histogram: 1 0 0 0 0 0 0 0 0 0
Nghost:        18052.0 ave       18052 max       18052 min
Histogram: 1 0 0 0 0 0 0 0 0 0
Neighs:    1.71350e+06 ave  1.7135e+06 max  1.7135e+06 min
Histogram: 1 0 0 0 0 0 0 0 0 0

Total # of neighbors = 1713495
Ave neighs/atom = 713.95625
Ave special neighs/atom = 8.5000000
Neighbor list builds = 84919
Dangerous builds = 0
Total wall time: 89:42:41
