LAMMPS (29 Sep 2021 - Update 2)
OMP_NUM_THREADS environment is not set. Defaulting to 1 thread. (src/comm.cpp:98)
  using 1 OpenMP thread(s) per MPI task
Reading data file ...
  orthogonal box = (-15.466318 -15.466318 -15.466318) to (15.466318 15.466318 15.466318)
  1 by 1 by 1 MPI processor grid
  reading atoms ...
  2400 atoms
  scanning bonds ...
  3 = max bonds/atom
  scanning angles ...
  3 = max angles/atom
  scanning dihedrals ...
  4 = max dihedrals/atom
  reading bonds ...
  2400 bonds
  reading angles ...
  3600 angles
  reading dihedrals ...
  3600 dihedrals
Finding 1-2 1-3 1-4 neighbors ...
  special bond factors lj:    0        0        0       
  special bond factors coul:  0        0        0       
     3 = max # of 1-2 neighbors
     4 = max # of 1-3 neighbors
     8 = max # of 1-4 neighbors
    10 = max # of special neighbors
  special bonds CPU = 0.001 seconds
  read_data CPU = 0.024 seconds
  200 rigid bodies with 2400 atoms
PPPM initialization ...
  using 12-bit tables for long-range coulomb (src/kspace.cpp:340)
  G vector (1/distance) = 0.1428774
  grid = 6 6 6
  stencil order = 5
  estimated absolute RMS force accuracy = 0.0078609937
  estimated relative force accuracy = 2.3673149e-05
  using double precision FFTW3
  3d grid and FFT values/proc = 1331 216
Neighbor list info ...
  update every 1 steps, delay 10 steps, check yes
  max neighbors/atom: 2000, page size: 100000
  master list distance cutoff = 16.655
  ghost atom cutoff = 16.655
  binsize = 8.3275, bins = 4 4 4
  1 neighbor lists, perpetual/occasional/extra = 1 0 0
  (1) pair lj/cut/coul/long, perpetual
      attributes: half, newton on
      pair build: half/bin/newton
      stencil: half/bin/3d
      bin: standard
Setting up Verlet run ...
  Unit style    : real
  Current step  : 0
  Time step     : 1
Per MPI rank memory allocation (min/avg/max) = 29.12 | 29.12 | 29.12 Mbytes
Step Temp E_pair E_mol TotEng Press 
       0    268.25133     12647.25            0    12966.293    98527.781 
    5000    9520.1184    1633.3036            0    12955.992    67630.796 
Loop time of 338.41 on 1 procs for 5000 steps with 2400 atoms

Performance: 1.277 ns/day, 18.801 hours/ns, 14.775 timesteps/s
100.0% CPU use with 1 MPI tasks x 1 OpenMP threads

MPI task timing breakdown:
Section |  min time  |  avg time  |  max time  |%varavg| %total
---------------------------------------------------------------
Pair    | 282.9      | 282.9      | 282.9      |   0.0 | 83.60
Bond    | 0.0063826  | 0.0063826  | 0.0063826  |   0.0 |  0.00
Kspace  | 8.8663     | 8.8663     | 8.8663     |   0.0 |  2.62
Neigh   | 44.24      | 44.24      | 44.24      |   0.0 | 13.07
Comm    | 0.99174    | 0.99174    | 0.99174    |   0.0 |  0.29
Output  | 3.8477e-05 | 3.8477e-05 | 3.8477e-05 |   0.0 |  0.00
Modify  | 1.2737     | 1.2737     | 1.2737     |   0.0 |  0.38
Other   |            | 0.129      |            |       |  0.04

Nlocal:        2400.00 ave        2400 max        2400 min
Histogram: 1 0 0 0 0 0 0 0 0 0
Nghost:        19080.0 ave       19080 max       19080 min
Histogram: 1 0 0 0 0 0 0 0 0 0
Neighs:    1.88170e+06 ave  1.8817e+06 max  1.8817e+06 min
Histogram: 1 0 0 0 0 0 0 0 0 0

Total # of neighbors = 1881704
Ave neighs/atom = 784.04333
Ave special neighs/atom = 8.5000000
Neighbor list builds = 425
Dangerous builds = 53
  create bodies CPU = 0.001 seconds
  200 rigid bodies with 2400 atoms
  3.8930170 = max distance from body owner to body atom
PPPM initialization ...
  using 12-bit tables for long-range coulomb (src/kspace.cpp:340)
  G vector (1/distance) = 0.1428774
  grid = 6 6 6
  stencil order = 5
  estimated absolute RMS force accuracy = 0.0078609937
  estimated relative force accuracy = 2.3673149e-05
  using double precision FFTW3
  3d grid and FFT values/proc = 1331 216
Setting up Verlet run ...
  Unit style    : real
  Current step  : 5000
  Time step     : 1
Per MPI rank memory allocation (min/avg/max) = 37.03 | 37.03 | 37.03 Mbytes
Step Temp E_pair E_mol TotEng Press Volume 
    5000    9520.1184    1633.3036            0    12955.992    86791.055    29597.212 
 1005000    273.20102   -1374.9939            0   -1050.0641    617.24074    29471.625 
Loop time of 59495.2 on 1 procs for 1000000 steps with 2400 atoms

Performance: 1.452 ns/day, 16.526 hours/ns, 16.808 timesteps/s
100.0% CPU use with 1 MPI tasks x 1 OpenMP threads

MPI task timing breakdown:
Section |  min time  |  avg time  |  max time  |%varavg| %total
---------------------------------------------------------------
Pair    | 55181      | 55181      | 55181      |   0.0 | 92.75
Bond    | 2.0762     | 2.0762     | 2.0762     |   0.0 |  0.00
Kspace  | 1784.3     | 1784.3     | 1784.3     |   0.0 |  3.00
Neigh   | 1481       | 1481       | 1481       |   0.0 |  2.49
Comm    | 158.14     | 158.14     | 158.14     |   0.0 |  0.27
Output  | 3.7852e-05 | 3.7852e-05 | 3.7852e-05 |   0.0 |  0.00
Modify  | 855.28     | 855.28     | 855.28     |   0.0 |  1.44
Other   |            | 33.09      |            |       |  0.06

Nlocal:        2400.00 ave        2400 max        2400 min
Histogram: 1 0 0 0 0 0 0 0 0 0
Nghost:        19004.0 ave       19004 max       19004 min
Histogram: 1 0 0 0 0 0 0 0 0 0
Neighs:    1.88427e+06 ave 1.88427e+06 max 1.88427e+06 min
Histogram: 1 0 0 0 0 0 0 0 0 0

Total # of neighbors = 1884272
Ave neighs/atom = 785.11333
Ave special neighs/atom = 8.5000000
Neighbor list builds = 14951
Dangerous builds = 3
PPPM initialization ...
  using 12-bit tables for long-range coulomb (src/kspace.cpp:340)
  G vector (1/distance) = 0.14296949
  grid = 6 6 6
  stencil order = 5
  estimated absolute RMS force accuracy = 0.0078331668
  estimated relative force accuracy = 2.3589349e-05
  using double precision FFTW3
  3d grid and FFT values/proc = 1331 216
Setting up Verlet run ...
  Unit style    : real
  Current step  : 0
  Time step     : 1
Per MPI rank memory allocation (min/avg/max) = 37.41 | 37.41 | 37.41 Mbytes
Step Temp Press v_dens Volume PotEng KinEng TotEng E_vdwl E_coul E_pair E_bond E_angle E_dihed E_impro E_mol E_long E_tail 
       0    273.20102    722.70106    880.23475    29471.625   -1374.9892    324.92977   -1050.0595   -1593.3912    797.76841   -1374.9892            0            0            0            0            0   -579.36649   -28.524488 
    5000    265.16671   -547.74045     872.2052    29742.942   -1396.4195    315.37422   -1081.0453   -1618.6335     801.6985   -1396.4195            0            0            0            0            0   -579.48454   -28.264287 
   10000    280.93796   -843.56362    878.76811    29520.813   -1429.8554    334.13166   -1095.7238   -1646.6821    795.96131   -1429.8554            0            0            0            0            0   -579.13464   -28.476961 
   15000    280.26148    427.31095    886.69442    29256.921   -1398.2017    333.32708   -1064.8746   -1615.9698    797.08903   -1398.2017            0            0            0            0            0   -579.32097   -28.733818 
   20000    275.68891   -218.66903    883.64854    29357.768   -1416.4469    327.88874   -1088.5581   -1635.1668    797.88796   -1416.4469            0            0            0            0            0   -579.16799   -28.635114 
   25000    260.79223   -334.72267    867.69475    29897.552   -1385.7041    310.17146   -1075.5326   -1607.3976    800.45354   -1385.7041            0            0            0            0            0   -578.76004   -28.118123 
   30000    267.72632    386.52236    897.63943    28900.188   -1444.8524    318.41848    -1126.434   -1654.9333    789.40278   -1444.8524            0            0            0            0            0   -579.32188   -29.088497 
   35000    289.75674    169.37181     890.3427    29137.038   -1425.9641    344.62021   -1081.3439    -1641.504    794.94917   -1425.9641            0            0            0            0            0   -579.40924   -28.852042 
   40000    259.66054    283.38595    888.77902      29188.3   -1412.9524     308.8255   -1104.1269   -1628.9082    795.09983   -1412.9524            0            0            0            0            0   -579.14402    -28.80137 
   45000    276.40521   0.17827877    892.23222    29075.333   -1425.0726    328.74066    -1096.332   -1645.3142    799.31649   -1425.0726            0            0            0            0            0   -579.07489   -28.913273 
   50000    278.80114    242.53159    878.04331    29545.181    -1391.973    331.59024   -1060.3827   -1608.7617    796.09309    -1391.973            0            0            0            0            0   -579.30439   -28.453474 
   55000    271.07695   -135.25229    896.75093    28928.823   -1457.1016    322.40353   -1134.6981   -1675.6389    797.88497   -1457.1016            0            0            0            0            0   -579.34762   -29.059704 
   60000    271.73842   -72.970174    875.90635    29617.263   -1396.4064    323.19024   -1073.2161   -1611.0093    793.94139   -1396.4064            0            0            0            0            0   -579.33846   -28.384224 
   65000    285.40649     55.93696    888.43579    29199.576   -1427.9454    339.44627   -1088.4992   -1645.3392    796.45607   -1427.9454            0            0            0            0            0   -579.06234   -28.790248 
   70000     271.2311   -121.28558    889.54401    29163.199   -1437.2849    322.58687    -1114.698   -1646.6101    788.63006   -1437.2849            0            0            0            0            0   -579.30482    -28.82616 
   75000    267.33394    260.42414    884.99922    29312.962   -1398.5744     317.9518   -1080.6226   -1613.9692    794.53737   -1398.5744            0            0            0            0            0   -579.14256   -28.678884 
   80000    247.18851   -248.15828      886.955    29248.326   -1416.8194    293.99198   -1122.8274    -1640.568     803.0028   -1416.8194            0            0            0            0            0   -579.25416   -28.742262 
   85000    293.48308   -281.20059    887.96063    29215.201   -1427.1126    349.05211   -1078.0605   -1649.3619    801.38184   -1427.1126            0            0            0            0            0   -579.13248    -28.77485 
   90000    281.65596    249.21158    881.12196     29441.95   -1392.8497    334.98561   -1057.8641   -1609.9155    796.56825   -1392.8497            0            0            0            0            0   -579.50243   -28.553239 
   95000    267.62109    16.516364    894.43998    29003.566   -1440.5588    318.29333   -1122.2655   -1659.9912    798.62867   -1440.5588            0            0            0            0            0   -579.19625   -28.984817 
  100000    269.99167    -544.6719    878.92898    29515.409   -1410.4525    321.11276   -1089.3398   -1630.8054     799.5493   -1410.4525            0            0            0            0            0   -579.19644   -28.482174 
  105000    266.51223    195.68547    888.47716    29198.217   -1417.9374    316.97451   -1100.9629   -1635.5656    796.68303   -1417.9374            0            0            0            0            0   -579.05477   -28.791588 
  110000    282.68575    383.95719    888.10284    29210.523   -1412.6691    336.21038   -1076.4587   -1629.3783    795.94121   -1412.6691            0            0            0            0            0   -579.23195   -28.779458 
  115000    269.87667   -178.62846    888.68027    29191.543   -1427.4841    320.97599   -1106.5081   -1644.6343    796.50073   -1427.4841            0            0            0            0            0   -579.35047    -28.79817 
  120000    276.29631   -341.28776    874.74886    29656.453   -1393.8088    328.61114   -1065.1976   -1618.1515    803.69145   -1393.8088            0            0            0            0            0   -579.34873   -28.346715 
  125000    271.31307   -471.07747    887.62317    29226.308   -1432.2876    322.68436   -1109.6033   -1654.6407    801.42951   -1432.2876            0            0            0            0            0   -579.07642   -28.763914 
  130000    288.90484    -410.9274    874.88948    29651.687    -1393.439    343.60701    -1049.832   -1620.8886    806.57645    -1393.439            0            0            0            0            0   -579.12678   -28.351272 
  135000    271.91823   -152.40438     887.7782    29221.205   -1438.1529     323.4041   -1114.7488   -1648.8915    789.82598   -1438.1529            0            0            0            0            0   -579.08745   -28.768938 
  140000    276.40888    485.15976    896.33288    28942.315   -1418.4479    328.74503   -1089.7029   -1635.5132    796.38837   -1418.4479            0            0            0            0            0   -579.32303   -29.046157 
  145000     262.9745    107.42417    883.05051     29377.65   -1407.2507    312.76694   -1094.4837   -1621.4406     793.1577   -1407.2507            0            0            0            0            0   -578.96782   -28.615735 
  150000    270.05013   -199.06888    882.19267    29406.216   -1415.0257    321.18229   -1093.8434    -1634.393     798.4023   -1415.0257            0            0            0            0            0   -579.03503   -28.587936 
  155000    291.57264   -447.99051    880.32715    29468.532   -1413.8844    346.77994   -1067.1044   -1630.7316    796.18918   -1413.8844            0            0            0            0            0   -579.34198   -28.527483 
  160000    276.00774    11.744558     888.3364    29202.843   -1434.8569    328.26793    -1106.589   -1649.0829    793.37542   -1434.8569            0            0            0            0            0   -579.14945   -28.787027 
  165000    263.79594   -374.66371    893.08766    29047.483   -1453.5468    313.74391   -1139.8029   -1663.0252    788.79009   -1453.5468            0            0            0            0            0   -579.31173   -28.940994 
  170000    255.88317    290.93733    899.83086    28829.806   -1453.7069    304.33291    -1149.374   -1659.6847    785.26658   -1453.7069            0            0            0            0            0   -579.28879   -29.159511 
  175000    294.76751   -568.90268    870.34667    29806.455    -1398.125    350.57973   -1047.5452   -1613.8924    795.09085    -1398.125            0            0            0            0            0   -579.32344    -28.20406 
  180000    271.78695   -34.540849    882.84023    29384.647   -1415.4153    323.24796   -1092.1673   -1627.6977    791.54323   -1415.4153            0            0            0            0            0   -579.26085   -28.608921 
  185000    254.32499   -2.9895119    899.74055    28832.699   -1455.4741     302.4797   -1152.9944   -1672.3635    796.07581   -1455.4741            0            0            0            0            0   -579.18645   -29.156584 
  190000    290.60064    288.80991    886.18327    29273.796   -1405.8903     345.6239   -1060.2664   -1624.5576    797.59325   -1405.8903            0            0            0            0            0   -578.92589   -28.717254 
  195000    270.96422    33.834908    887.15404    29241.763   -1421.5663    322.26946   -1099.2968   -1642.5113    800.09515   -1421.5663            0            0            0            0            0   -579.15007   -28.748712 
  200000    280.95732    576.18737    900.83139    28797.785   -1430.2101    334.15468   -1096.0554   -1654.3871    803.32462   -1430.2101            0            0            0            0            0   -579.14761   -29.191934 
  205000    268.94512    70.578178    881.15398     29440.88   -1404.9275    319.86805   -1085.0595   -1617.9105    792.11033   -1404.9275            0            0            0            0            0   -579.12736   -28.554276 
  210000    264.23862   -19.403981    885.94127    29281.793   -1418.7772    314.27041   -1104.5068   -1628.9472    789.20639   -1418.7772            0            0            0            0            0   -579.03633   -28.709411 
  215000    284.31811   -402.07611    893.09825    29047.139   -1451.8373    338.15181   -1113.6855   -1670.2512    797.24657   -1451.8373            0            0            0            0            0   -578.83272   -28.941337 
  220000    285.43934    214.86952    887.56166    29228.334   -1423.4687    339.48535   -1083.9833   -1632.3356    788.01925   -1423.4687            0            0            0            0            0   -579.15231   -28.761921 
  225000    274.17051   -351.02499    887.11757    29242.966   -1442.1999    326.08284   -1116.1171   -1651.7743    788.76707   -1442.1999            0            0            0            0            0   -579.19265    -28.74753 
  230000    260.07803    409.94843     895.6529    28964.288   -1437.3947    309.32204   -1128.0726   -1651.4652    793.25527   -1437.3947            0            0            0            0            0    -579.1847   -29.024122 
  235000    283.41919   -202.66512    871.46973    29768.043   -1378.0983    337.08269   -1041.0156   -1604.9528    806.28978   -1378.0983            0            0            0            0            0   -579.43527   -28.240453 
  240000     264.2023   -259.03276     877.5239    29562.669   -1408.5029    314.22721   -1094.2757   -1628.8986     799.5811   -1408.5029            0            0            0            0            0   -579.18542   -28.436642 
  245000     283.1669   -476.96396     860.6824     30141.14   -1361.3266    336.78263   -1024.5439   -1590.8828    808.72653   -1361.3266            0            0            0            0            0   -579.17035   -27.890884 
  250000     288.3163    36.313691    870.53503    29800.005   -1376.4193    342.90704   -1033.5122   -1597.6602    800.31948   -1376.4193            0            0            0            0            0   -579.07856   -28.210164 
  255000    265.02621    44.998616     890.0872    29145.401   -1412.9028    315.20712   -1097.6957   -1637.8036    804.11786   -1412.9028            0            0            0            0            0   -579.21703   -28.843762 
  260000    271.23028    -7.137968    891.04044    29114.221   -1429.3545    322.58589   -1106.7686   -1647.5454    797.44201   -1429.3545            0            0            0            0            0   -579.25114   -28.874653 
  265000    271.97116   -371.20337    886.72071    29256.053   -1432.8254    323.46705   -1109.3584   -1650.7687    797.16762   -1432.8254            0            0            0            0            0   -579.22432    -28.73467 
  270000     287.8098   -268.75267    881.45498    29430.827    -1413.797    342.30463   -1071.4924    -1632.904    798.27333    -1413.797            0            0            0            0            0   -579.16639   -28.564031 
  275000    272.57216    113.94876    893.11542     29046.58   -1436.3896    324.18185   -1112.2077   -1650.8376    793.66003   -1436.3896            0            0            0            0            0   -579.21206   -28.941894 
  280000    302.83976    333.39915     895.0484     28983.85   -1425.5882    360.18042   -1065.4078   -1647.7473     801.3058   -1425.5882            0            0            0            0            0   -579.14674   -29.004533 
  285000    279.36681      457.261    891.89635    29086.282   -1422.0906    332.26301   -1089.8276   -1635.7364    793.07379   -1422.0906            0            0            0            0            0   -579.42795   -28.902389 
  290000    288.96016    90.248638    875.35715    29635.845   -1382.5923    343.67281   -1038.9195   -1601.1406    797.95467   -1382.5923            0            0            0            0            0   -579.40636   -28.366427 
  295000    268.40316    90.641998    870.86302    29788.782   -1367.6715    319.22348   -1048.4481   -1589.6484    801.26816   -1367.6715            0            0            0            0            0   -579.29134   -28.220792 
  300000     269.5652   -234.96518    873.27436    29706.527   -1391.9202    320.60554   -1071.3146   -1608.5895    795.77999   -1391.9202            0            0            0            0            0   -579.11069   -28.298933 
  305000    274.73198    -336.9257    890.48623    29132.341   -1449.1314    326.75061   -1122.3808   -1660.4034    790.49359   -1449.1314            0            0            0            0            0   -579.22158   -28.856693 
  310000    278.70768    -324.9386    876.48248    29597.795   -1406.6317    331.47909   -1075.1526   -1619.0735    791.79073   -1406.6317            0            0            0            0            0   -579.34894   -28.402894 
  315000    271.21018   -242.43993    870.25135    29809.719   -1387.4975    322.56198   -1064.9355     -1605.39    797.12461   -1387.4975            0            0            0            0            0   -579.23208   -28.200971 
  320000    267.16161    -462.5387    890.72582    29124.505   -1457.5733    317.74685   -1139.8264   -1665.7677    787.34899   -1457.5733            0            0            0            0            0    -579.1546   -28.864457 
  325000    277.49898    57.133326    881.45107    29430.957   -1401.6553    330.04153   -1071.6138   -1624.4401    801.84853   -1401.6553            0            0            0            0            0   -579.06375   -28.563904 
  330000     282.1217    319.18481    898.36456    28876.861   -1446.6682    335.53952   -1111.1287   -1654.6151    787.22898   -1446.6682            0            0            0            0            0   -579.28211   -29.111995 
  335000    262.51395   -342.53681    878.24545    29538.381   -1411.0339    312.21919   -1098.8147   -1627.1549    795.43142   -1411.0339            0            0            0            0            0   -579.31039   -28.460024 
  340000    281.03229    72.418753    889.51526    29164.141   -1426.9097    334.24385   -1092.6659   -1638.1612    790.59803   -1426.9097            0            0            0            0            0   -579.34654   -28.825228 
  345000    282.82432   -644.94076    863.77228    30033.319   -1380.5188    336.37518   -1044.1436   -1599.6471    798.37427   -1380.5188            0            0            0            0            0   -579.24595   -27.991013 
  350000    280.63761   -172.33017    876.20956    29607.014   -1392.4841    333.77443   -1058.7097   -1613.9829    800.75594   -1392.4841            0            0            0            0            0   -579.25716    -28.39405 
  355000    267.67234    48.564887    892.98809    29050.722   -1432.6797    318.35428   -1114.3254   -1651.9255    798.65091   -1432.6797            0            0            0            0            0   -579.40515   -28.937767 
  360000    279.39396    227.83045    883.37168    29366.969   -1401.6717     332.2953   -1069.3764   -1621.3354    799.03319   -1401.6717            0            0            0            0            0   -579.36947   -28.626142 
  365000    280.41771    254.39471    878.26589    29537.694   -1381.5896     333.5129   -1048.0767   -1598.3551    796.08251   -1381.5896            0            0            0            0            0   -579.31703   -28.460686 
  370000    286.33612   -174.20342    885.90172      29283.1    -1425.063    340.55192   -1084.5111   -1644.6385    798.97049    -1425.063            0            0            0            0            0   -579.39501    -28.70813 
  375000    279.30457   -6.8150953    882.53626    29394.768   -1407.7818    332.18899   -1075.5928   -1622.7553     794.3513   -1407.7818            0            0            0            0            0   -579.37784    -28.59907 
  380000    275.87163   -152.47187     889.6266    29160.491   -1439.1841    328.10605    -1111.078   -1652.6592    792.82503   -1439.1841            0            0            0            0            0   -579.34997   -28.828836 
  385000    274.00205    233.92394    895.60967    28965.686   -1438.8429    325.88248   -1112.9604   -1653.3056    793.78162   -1438.8429            0            0            0            0            0   -579.31894   -29.022721 
  390000    283.82602    175.95056    896.72238    28929.744   -1436.7824    337.56655   -1099.2158    -1656.314    798.93857   -1436.7824            0            0            0            0            0   -579.40692   -29.058779 
  395000    265.80897    297.31532    884.88043    29316.897   -1396.8323    316.13809   -1080.6942   -1619.3528     801.5405   -1396.8323            0            0            0            0            0   -579.01996   -28.675034 
  400000    264.02751   -237.33348    877.73898    29555.425   -1394.3149    314.01933   -1080.2956   -1618.5377    803.30283   -1394.3149            0            0            0            0            0   -579.08006   -28.443612 
  405000    279.40881    190.11099     881.5859    29426.456   -1400.3779    332.31297   -1068.0649   -1619.0597    797.91561   -1400.3779            0            0            0            0            0   -579.23378   -28.568273 
  410000      281.462    83.142231    884.34398    29334.681   -1404.6108    334.75492   -1069.8558   -1632.0822    806.78771   -1404.6108            0            0            0            0            0   -579.31631    -28.65765 
  415000    285.45225    62.686531    894.43252    29003.808   -1428.9393     339.5007   -1089.4386   -1647.3006    797.68759   -1428.9393            0            0            0            0            0   -579.32627   -28.984575 
  420000    262.86195   -103.13669    891.57808    29096.665   -1427.4078    312.63308   -1114.7747   -1645.0555    796.99347   -1427.4078            0            0            0            0            0   -579.34576   -28.892075 
  425000    290.76547    463.10179    900.93001    28794.633   -1442.1557    345.81993   -1096.3358   -1656.7703    793.99581   -1442.1557            0            0            0            0            0   -579.38125    -29.19513 
  430000    280.32675   -85.101286    899.81307    28830.375   -1451.1677    333.40472    -1117.763   -1668.7538    796.87324   -1451.1677            0            0            0            0            0   -579.28717   -29.158935 
  435000    269.36725    364.12326    903.36297    28717.082   -1448.7331    320.37011    -1128.363   -1662.7556    793.53952   -1448.7331            0            0            0            0            0     -579.517   -29.273971 
  440000    284.36058   -41.819383    888.41621     29200.22    -1422.744    338.20233   -1084.5417   -1636.8443    793.20538    -1422.744            0            0            0            0            0   -579.10508   -28.789613 
  445000     274.8011    153.32586    876.07706    29611.492   -1384.5277    326.83282   -1057.6949   -1598.8739    793.49235   -1384.5277            0            0            0            0            0   -579.14611   -28.389756 
  450000     286.4333    286.19412    879.70046    29489.525   -1391.1432    340.66749   -1050.4757   -1615.7853    803.51052   -1391.1432            0            0            0            0            0   -578.86845   -28.507175 
  455000    269.59425    229.51296    899.50171    28840.355   -1454.0876    320.64009   -1133.4475   -1669.5381    794.76275   -1454.0876            0            0            0            0            0   -579.31225   -29.148845 
  460000     294.0339    441.06875    895.22518    28978.127   -1418.4861    349.70723   -1068.7789    -1644.579    805.48774   -1418.4861            0            0            0            0            0   -579.39485   -29.010262 
  465000    269.95219    382.74531    893.19349    29044.041   -1425.2459     321.0658   -1104.1801   -1644.6626    798.70257   -1425.2459            0            0            0            0            0   -579.28579   -28.944423 
  470000    283.32174    134.98741    899.86322    28828.769   -1453.5782    336.96679   -1116.6114   -1668.9136    794.56321   -1453.5782            0            0            0            0            0   -579.22783    -29.16056 
  475000    281.36288   -182.47387    890.32665    29137.563   -1437.8073    334.63703   -1103.1703   -1647.8143    789.17135   -1437.8073            0            0            0            0            0   -579.16436   -28.851522 
  480000    264.90961    245.70879    900.34266    28813.417   -1445.9484    315.06844     -1130.88   -1666.0546    799.18634   -1445.9484            0            0            0            0            0   -579.08009   -29.176096 
  485000    284.76041     231.0083    901.28538    28783.279   -1460.5014    338.67786   -1121.8235   -1668.6952    787.28815   -1460.5014            0            0            0            0            0   -579.09435   -29.206646 
  490000    258.85625   -230.86102     874.8494    29653.045   -1401.5954    307.86892   -1093.7264   -1617.8105    795.40721   -1401.5954            0            0            0            0            0   -579.19208   -28.349973 
  495000    275.59522    -408.5666    873.37327    29703.163   -1401.1553     327.7773    -1073.378    -1617.238    795.19797   -1401.1553            0            0            0            0            0   -579.11522   -28.302139 
  500000    295.43123    235.70894    897.77065    28895.964   -1441.7447    351.36913   -1090.3756   -1658.6309    796.03738   -1441.7447            0            0            0            0            0   -579.15112   -29.092749 
  505000    264.03214   -207.61175    881.20376    29439.217     -1408.72    314.02483   -1094.6952   -1626.4141    796.97638     -1408.72            0            0            0            0            0   -579.28231    -28.55589 
  510000    267.51063   -191.15529    886.70294     29256.64   -1419.6878    318.16195   -1101.5258   -1638.9089    798.50941   -1419.6878            0            0            0            0            0   -579.28832   -28.734094 
  515000    278.54785    71.266484    879.59046    29493.213   -1392.7293      331.289   -1061.4403   -1604.3218    790.89446   -1392.7293            0            0            0            0            0   -579.30198    -28.50361 
  520000    272.26841    80.028941    890.99908    29115.573   -1425.3274    323.82059   -1101.5068    -1647.138    800.90951   -1425.3274            0            0            0            0            0   -579.09888   -28.873313 
  525000    286.49848    390.03662      892.172    29077.295   -1428.6376    340.74502   -1087.8926   -1643.8348    794.51798   -1428.6376            0            0            0            0            0   -579.32071   -28.911322 
  530000    266.52918   -436.57586    880.57712    29460.167   -1409.9214    316.99467   -1092.9268   -1630.7677    800.17402   -1409.9214            0            0            0            0            0   -579.32777   -28.535583 
  535000    264.14334    260.60619     895.4632    28970.424   -1429.0093    314.15709   -1114.8522   -1648.9402    799.04836   -1429.0093            0            0            0            0            0   -579.11749   -29.017975 
  540000    275.32825   -142.13424    889.14298    29176.352   -1429.6405    327.45979   -1102.1807   -1649.1776    798.77865   -1429.6405            0            0            0            0            0   -579.24162   -28.813165 
  545000    263.04076     137.0105    890.62546    29127.787   -1423.4173    312.84574   -1110.5715   -1634.4515    790.32433   -1423.4173            0            0            0            0            0   -579.29007   -28.861205 
  550000    282.49579    145.28575    893.27438    29041.411   -1422.1638    335.98445   -1086.1794   -1652.3703    809.70083   -1422.1638            0            0            0            0            0   -579.49435   -28.947045 
  555000     273.4884    344.51004    883.42303    29365.262   -1399.6603    325.27157   -1074.3887   -1616.9521    796.69726   -1399.6603            0            0            0            0            0   -579.40542   -28.627806 
  560000    272.06008    171.14117    883.32818    29368.415    -1406.911    323.57281   -1083.3381   -1616.5108    788.86495    -1406.911            0            0            0            0            0   -579.26511   -28.624733 
  565000    274.56986    237.46183    904.33018    28686.368   -1467.5941    326.55779   -1141.0363   -1673.5154    785.09836   -1467.5941            0            0            0            0            0   -579.17711   -29.305314 
  570000    288.57795    338.45704      892.111    29079.283   -1416.7099    343.21823   -1073.4917    -1636.443    798.93926   -1416.7099            0            0            0            0            0   -579.20621   -28.909345 
  575000    253.53377    536.21144    899.05503    28854.684   -1434.2652    301.53867   -1132.7266   -1654.2686    799.17181   -1434.2652            0            0            0            0            0   -579.16848    -29.13437 
  580000     277.3882    4.7695802    885.05251    29311.197   -1418.6458    329.90977    -1088.736   -1640.1931      800.869   -1418.6458            0            0            0            0            0   -579.32166   -28.680611 
  585000    272.11918   -319.86908    879.90701    29482.603   -1406.2484     323.6431   -1082.6053   -1628.0471    801.27234   -1406.2484            0            0            0            0            0   -579.47364   -28.513868 
  590000    262.97493   -380.61082    879.11767    29509.074   -1406.2276    312.76744   -1093.4602   -1629.6853    802.69118   -1406.2276            0            0            0            0            0   -579.23349   -28.488289 
  595000    285.48769   -211.86948    865.13502    29986.011   -1363.1481    339.54284   -1023.6053   -1582.3076    798.56487   -1363.1481            0            0            0            0            0   -579.40537   -28.035174 
  600000    273.56268    124.18119    899.65961    28835.293   -1450.7071    325.35992   -1125.3472   -1665.6283    794.35788   -1450.7071            0            0            0            0            0   -579.43674   -29.153962 
  605000    283.42653    113.77215    882.43249    29398.225   -1401.4534    337.09141   -1064.3619   -1625.9951    803.69723   -1401.4534            0            0            0            0            0   -579.15547   -28.595707 
  610000      298.069    199.72912    893.95795    29019.205   -1435.3737    354.50634   -1080.8674   -1648.9157    792.63638   -1435.3737            0            0            0            0            0   -579.09441   -28.969196 
  615000    292.71832    275.18295    892.12279    29078.899    -1424.249    348.14255   -1076.1064   -1639.6446    794.50715    -1424.249            0            0            0            0            0   -579.11155   -28.909727 
  620000    267.22239    220.68042    874.45583    29666.391    -1371.536    317.81914   -1053.7169   -1589.7784    797.64365    -1371.536            0            0            0            0            0    -579.4013   -28.337219 
  625000    281.83291   -608.58923    887.44574    29232.152   -1437.1858    335.19606   -1101.9897   -1655.0638    797.12675   -1437.1858            0            0            0            0            0   -579.24873   -28.758164 
  630000    269.24076   -246.53564    886.45372    29264.865   -1427.0661    320.21967   -1106.8465   -1642.7243    795.00919   -1427.0661            0            0            0            0            0   -579.35099   -28.726018 
  635000    285.87616     143.8868    891.57889    29096.639   -1432.0189    340.00487    -1092.014    -1649.576    796.74876   -1432.0189            0            0            0            0            0   -579.19161   -28.892101 
  640000    266.79832   -177.12305    882.62267     29391.89   -1411.1355    317.31477   -1093.8208   -1625.3418    793.45583   -1411.1355            0            0            0            0            0   -579.24954    -28.60187 
  645000     286.9372    19.824946    877.79158    29553.654   -1394.7711    341.26681   -1053.5043   -1612.2024    796.60616   -1394.7711            0            0            0            0            0   -579.17483   -28.445316 
  650000    287.96534   -40.711575    880.62685    29458.503   -1404.6594    342.48962   -1062.1698   -1627.8601    802.33303   -1404.6594            0            0            0            0            0   -579.13236   -28.537195 
  655000    272.32998   -538.86102    873.05504     29713.99   -1404.1258    323.89381   -1080.2319   -1620.7358    795.91339   -1404.1258            0            0            0            0            0   -579.30334   -28.291826 
  660000    302.89361   -40.565534    887.65203    29225.358     -1440.43    360.24446   -1080.1855   -1652.5994    791.38899     -1440.43            0            0            0            0            0    -579.2196    -28.76485 
  665000    286.01304    188.62743    877.79374    29553.581   -1385.1106    340.16767    -1044.943   -1600.0322    794.03997   -1385.1106            0            0            0            0            0   -579.11845   -28.445386 
  670000    282.39172   -327.10638    883.50223    29362.629   -1421.4405    335.86068   -1085.5798   -1639.6359    797.38874   -1421.4405            0            0            0            0            0   -579.19335   -28.630373 
  675000    279.80935    219.28499     887.3776    29234.397   -1415.0804    332.78935   -1082.2911   -1631.7034    795.82506   -1415.0804            0            0            0            0            0   -579.20212   -28.755956 
  680000    281.22415    44.321797    885.10158    29309.572   -1406.1555    334.47203   -1071.6835   -1627.6717    800.92175   -1406.1555            0            0            0            0            0   -579.40561   -28.682201 
  685000    272.01304     583.2558     891.6261    29095.098    -1407.963    323.51686   -1084.4462   -1623.8165     795.3924    -1407.963            0            0            0            0            0   -579.53896   -28.893632 
  690000    272.24085   -68.190871    887.09737    29243.631   -1419.5717    323.78781   -1095.7839   -1638.3806    798.31431   -1419.5717            0            0            0            0            0   -579.50537   -28.746876 
  695000    273.98225    325.02557    898.28673    28879.363   -1434.6426    325.85892   -1108.7837   -1655.3208    799.86581   -1434.6426            0            0            0            0            0   -579.18763   -29.109473 
  700000    290.09112    93.782908    881.79466    29419.489   -1401.0604     345.0179   -1056.0425   -1619.9088     797.9569   -1401.0604            0            0            0            0            0   -579.10844   -28.575038 
  705000    264.93331    461.69426    891.46719    29100.284   -1416.1869    315.09663   -1101.0902    -1632.335    795.57463   -1416.1869            0            0            0            0            0   -579.42648   -28.888482 
  710000    276.35653   -5.0287666    897.05788    28918.924   -1454.5946    328.68276   -1125.9119   -1661.5751    786.14714   -1454.5946            0            0            0            0            0    -579.1667   -29.069651 
  715000    290.18257    88.579323    898.04327    28887.192    -1448.887    345.12667   -1103.7603   -1658.6136    788.84165    -1448.887            0            0            0            0            0   -579.11507   -29.101583 
  720000    284.95009    185.55639    881.91644    29415.427   -1386.2414    338.90346   -1047.3379   -1607.4198    800.52523   -1386.2414            0            0            0            0            0   -579.34679   -28.578984 
  725000    255.78495   -295.10182    875.24977    29639.481   -1397.2101    304.21609   -1092.9941   -1614.6257     796.5425   -1397.2101            0            0            0            0            0   -579.12698   -28.362948 
  730000    268.88352     179.1368    888.50373    29197.343   -1417.2565    319.79479   -1097.4617   -1632.3565    794.32482   -1417.2565            0            0            0            0            0   -579.22473   -28.792449 
  735000    272.29783   -141.55151    891.87984     29086.82   -1440.9499    323.85557   -1117.0943    -1657.161    795.32133   -1440.9499            0            0            0            0            0   -579.11021   -28.901854 
  740000    293.31447    311.00567    895.33856    28974.457   -1434.6423    348.85157   -1085.7908   -1645.6477    790.50199   -1434.6423            0            0            0            0            0   -579.49665   -29.013936 
  745000    295.61206   -147.10079    890.79446    29122.261   -1439.4917     351.5842   -1087.9075    -1657.768    797.33407   -1439.4917            0            0            0            0            0   -579.05777   -28.866682 
  750000    296.16375   -1.8526154    881.16748    29440.429    -1401.509    352.24034   -1049.2686    -1622.756    800.36508    -1401.509            0            0            0            0            0   -579.11808   -28.554714 
  755000    271.02664    -96.08051    890.23187    29140.665   -1438.8636     322.3437   -1116.5199   -1653.7322    794.00208   -1438.8636            0            0            0            0            0   -579.13351   -28.848451 
  760000    275.84745   -47.582913    892.56647    29064.445   -1437.9141     328.0773   -1109.8368   -1651.8805    793.00105   -1437.9141            0            0            0            0            0   -579.03456   -28.924105 
  765000    263.84169    569.84519    889.97329    29149.132   -1406.6297    313.79832   -1092.8314   -1623.8072    796.54216   -1406.6297            0            0            0            0            0   -579.36471   -28.840071 
  770000    274.56754    261.95609    894.84568    28990.416   -1437.2093    326.55504   -1110.6542   -1648.1542     790.1007   -1437.2093            0            0            0            0            0   -579.15573   -28.997964 
  775000    270.48907   -219.97355    859.25314    30191.276   -1356.4644    321.70434     -1034.76   -1576.9932    799.89266   -1356.4644            0            0            0            0            0   -579.36379   -27.844568 
  780000    267.56599   -555.54517    897.32899    28910.187   -1470.8414     318.2278   -1152.6136   -1687.6922     796.0566   -1470.8414            0            0            0            0            0   -579.20585   -29.078437 
  785000    256.10518   -37.860603    894.26414    29009.269   -1440.1758    304.59696   -1135.5788   -1663.1535    802.28548   -1440.1758            0            0            0            0            0   -579.30774   -28.979118 
  790000    274.29695    -675.9804    871.78489    29757.282   -1403.9448    326.23321   -1077.7116   -1623.8848    799.19498   -1403.9448            0            0            0            0            0   -579.25503   -28.250666 
  795000    277.37384    161.27225    897.35135    28909.466   -1442.7918    329.89269   -1112.8991   -1653.3133    789.53253   -1442.7918            0            0            0            0            0   -579.01104   -29.079161 
  800000    277.48677   -351.55106     881.2376    29438.086   -1410.9125    330.02701   -1080.8855   -1624.8101    793.00167   -1410.9125            0            0            0            0            0   -579.10413   -28.556986 
  805000    281.91849    -455.8773    875.61105    29627.251   -1406.8404    335.29785   -1071.5425   -1623.7257    796.06208   -1406.8404            0            0            0            0            0   -579.17679   -28.374655 
  810000    287.81768    183.62489    888.82447    29186.807   -1412.1057      342.314   -1069.7917   -1632.0609    799.38651   -1412.1057            0            0            0            0            0   -579.43133   -28.802843 
  815000    284.84654    269.03161    877.15261    29575.183   -1380.4699    338.78029   -1041.6896   -1600.6511    799.52743   -1380.4699            0            0            0            0            0   -579.34617    -28.42461 
  820000    267.78994    111.00495    880.80254    29452.627   -1401.5849    318.49415   -1083.0908   -1618.0963     795.6118   -1401.5849            0            0            0            0            0   -579.10042   -28.542888 
  825000     271.5607    16.003114    879.75909     29487.56   -1395.7658    322.97887   -1072.7869   -1615.4348    798.76021   -1395.7658            0            0            0            0            0   -579.09121   -28.509074 
  830000    278.73345    62.335231    891.34819    29104.169   -1429.7928    331.50973    -1098.283   -1652.6723    801.90837   -1429.7928            0            0            0            0            0    -579.0288   -28.884625 
  835000    257.91442    523.56932    899.23569    28848.887   -1430.8095    306.74877   -1124.0607   -1648.5997     797.1712   -1430.8095            0            0            0            0            0   -579.38093   -29.140224 
  840000    279.32989     123.3285    875.29437     29637.97   -1383.7697    332.21911   -1051.5506   -1597.4615    793.10353   -1383.7697            0            0            0            0            0    -579.4117   -28.364393 
  845000     269.1938   -244.86063    866.60398    29935.183   -1374.7418    320.16382    -1054.578    -1589.678    794.15062   -1374.7418            0            0            0            0            0   -579.21438   -28.082776 
  850000    261.58404   -30.224082    895.08826    28982.559   -1442.5965     311.1132   -1131.4833   -1662.0038    798.69914   -1442.5965            0            0            0            0            0   -579.29185   -29.005825 
  855000    279.25279    303.60638    886.62941    29259.066   -1401.8142    332.12741   -1069.6867   -1623.1877    800.51071   -1401.8142            0            0            0            0            0    -579.1372   -28.731711 
  860000    280.73708    981.81524    908.99439    28539.173   -1447.4123    333.89274   -1113.5196   -1657.3715     789.1039   -1447.4123            0            0            0            0            0   -579.14479    -29.45646 
  865000    271.00544    1023.6241     898.6777    28866.799   -1409.0532    322.31848   -1086.7347   -1627.5741    797.94721   -1409.0532            0            0            0            0            0   -579.42633   -29.122142 
  870000    271.18812    207.73717    872.67974    29726.768   -1379.1252    322.53575   -1056.5894   -1596.6796    796.75044   -1379.1252            0            0            0            0            0   -579.19605   -28.279664 
  875000    275.46049   -210.46043    898.82398    28862.101   -1455.8828    327.61706   -1128.2657   -1671.9599    795.04562   -1455.8828            0            0            0            0            0    -578.9685   -29.126883 
  880000    272.25538   -232.72534    881.31833     29435.39   -1409.2483    323.80508   -1085.4433   -1631.8703    801.55007   -1409.2483            0            0            0            0            0   -578.92812   -28.559602 
  885000    266.98183    412.83222    903.57356    28710.389   -1453.3179    317.53303   -1135.7848   -1673.5599     799.3351   -1453.3179            0            0            0            0            0   -579.09307   -29.280795 
  890000    273.90652    170.70805    884.98024    29313.591   -1403.4935    325.76886   -1077.7246   -1626.9745    802.83663   -1403.4935            0            0            0            0            0   -579.35562   -28.678269 
  895000    294.82929   -25.278541    883.01477    29378.839    -1409.783    350.65321   -1059.1298   -1623.1433    792.84751    -1409.783            0            0            0            0            0   -579.48721   -28.614577 
  900000     255.3763   -79.467958    878.35237    29534.785   -1401.9164    303.73007   -1098.1863   -1616.5647    793.97192   -1401.9164            0            0            0            0            0   -579.32362   -28.463489 
  905000    271.88702    27.820927    886.58242    29260.617   -1418.8691    323.36699   -1095.5021   -1631.9365    792.45788   -1418.8691            0            0            0            0            0   -579.39055   -28.730188 
  910000    286.38183    284.34435    887.56426    29228.248   -1411.2352    340.60629   -1070.6289   -1624.8412    792.88816   -1411.2352            0            0            0            0            0   -579.28221   -28.762005 
  915000    276.12332    57.844039    898.67644     28866.84    -1446.443     328.4054   -1118.0376   -1658.1363    790.99747    -1446.443            0            0            0            0            0   -579.30417   -29.122101 
  920000    257.28088   -372.96709    879.27862    29503.673   -1411.4336    305.99527   -1105.4384   -1630.7452    798.48176   -1411.4336            0            0            0            0            0   -579.17026   -28.493505 
  925000    283.81782   -350.16027    876.43537    29599.386   -1395.3387     337.5568   -1057.7819   -1625.3994    809.29801   -1395.3387            0            0            0            0            0   -579.23731   -28.401367 
  930000    266.28036    -215.6927    885.35542    29301.169    -1428.428    316.69874   -1111.7292   -1643.5766     794.4108    -1428.428            0            0            0            0            0   -579.26222   -28.690427 
  935000    286.38896    629.96014    894.66384    28996.309   -1421.7888    340.61476    -1081.174   -1639.4489    797.04248   -1421.7888            0            0            0            0            0   -579.38231   -28.992071 
  940000    276.18311    -148.8967    887.69117     29224.07   -1430.8796    328.47651   -1102.4031   -1648.5855    796.87498   -1430.8796            0            0            0            0            0   -579.16911   -28.766118 
  945000    266.45947   -172.29819    887.22797    29239.327   -1418.3103    316.91176   -1101.3985   -1634.7778    795.52044   -1418.3103            0            0            0            0            0   -579.05292   -28.751108 
  950000    280.84124    143.46773    881.42627    29431.785    -1397.106    334.01662   -1063.0894    -1614.034    796.07873    -1397.106            0            0            0            0            0   -579.15077     -28.5631 
  955000     256.0335    371.41643    892.71317    29059.668    -1423.804     304.5117   -1119.2923   -1638.0164    793.43801    -1423.804            0            0            0            0            0   -579.22568   -28.928858 
  960000    268.72729     415.3819     905.8903    28636.965   -1452.7282    319.60898   -1133.1192   -1667.8401    794.40531   -1452.7282            0            0            0            0            0    -579.2934   -29.355871 
  965000    291.25441   -261.31502    877.99743    29546.725   -1415.2269    346.40146   -1068.8254   -1623.7006    787.87492   -1415.2269            0            0            0            0            0   -579.40123   -28.451987 
  970000    260.62657    -299.4441    876.81235     29586.66   -1400.7614    309.97445    -1090.787   -1616.5382    795.13269   -1400.7614            0            0            0            0            0   -579.35597   -28.413584 
  975000    257.49612    145.46335    887.93617    29216.006   -1419.8681    306.25127   -1113.6169   -1643.9015     803.3433   -1419.8681            0            0            0            0            0   -579.30995   -28.774057 
  980000    256.00821    181.81037    889.71405    29157.625   -1408.8444    304.48163   -1104.3628   -1635.8317     806.3415   -1408.8444            0            0            0            0            0   -579.35425    -28.83167 
  985000    271.20356    250.38082    886.67311    29257.624   -1405.9842    322.55411   -1083.4301   -1627.3014    800.65377   -1405.9842            0            0            0            0            0   -579.33656   -28.733127 
  990000     251.1439     130.9544    895.15549    28980.383   -1434.0143    298.69629    -1135.318   -1650.1586    795.33102   -1434.0143            0            0            0            0            0   -579.18673   -29.008003 
  995000    295.76723    463.99515    897.95261    28890.109   -1430.8281    351.76874   -1079.0593   -1639.6481    788.03118   -1430.8281            0            0            0            0            0   -579.21117   -29.098646 
 1000000    282.97736   -76.645721    893.28847    29040.953   -1435.5411     336.5572   -1098.9839   -1655.5642    799.39824   -1435.5411            0            0            0            0            0    -579.3752   -28.947501 
 1005000    287.10491   -92.002666     871.5622    29764.885   -1382.4978    341.46628   -1041.0315   -1605.5798    802.06913   -1382.4978            0            0            0            0            0   -578.98707    -28.24345 
 1010000    257.31202   -42.091816     883.3084    29369.073   -1403.2352     306.0323   -1097.2029   -1628.2287    804.33152   -1403.2352            0            0            0            0            0   -579.33811   -28.624092 
 1015000    269.53138    361.71959    889.73379    29156.978     -1425.23    320.56531   -1104.6646   -1635.1488    789.02461     -1425.23            0            0            0            0            0   -579.10575    -28.83231 
 1020000    283.63394     185.7941    889.71182    29157.698   -1412.5455     337.3381   -1075.2074   -1628.9152    795.60372   -1412.5455            0            0            0            0            0   -579.23396   -28.831598 
 1025000    295.34569   -170.75853    880.88598    29449.837   -1414.6677    351.26739   -1063.4003   -1627.8467    792.27566   -1414.6677            0            0            0            0            0   -579.09666   -28.545592 
 1030000    280.38652   -271.21825    895.45644    28970.643   -1452.2886     333.4758   -1118.8128   -1664.4555    791.26309   -1452.2886            0            0            0            0            0   -579.09611   -29.017756 
 1035000    277.29934    426.48119    907.18251    28596.174   -1467.0885    329.80408   -1137.2845   -1678.9115    791.21996   -1467.0885            0            0            0            0            0   -579.39698   -29.397745 
 1040000     256.4476   -201.04513    874.18857    29675.461   -1395.7974    305.00421   -1090.7932   -1611.1882    794.73216   -1395.7974            0            0            0            0            0   -579.34139   -28.328559 
 1045000    278.93229   -25.669734    880.68834    29456.446   -1407.4401    331.74623   -1075.6939   -1625.5622    797.36119   -1407.4401            0            0            0            0            0   -579.23911   -28.539187 
 1050000    271.41663   -391.33412    889.85381    29153.046   -1445.7022    322.80752   -1122.8946     -1660.29    793.83703   -1445.7022            0            0            0            0            0   -579.24915   -28.836199 
 1055000     270.6765      151.897    894.45219     29003.17    -1437.579    321.92726   -1115.6517   -1653.9771     795.7112    -1437.579            0            0            0            0            0   -579.31306   -28.985213 
 1060000    285.68049   -356.88441     870.6382    29796.474   -1373.9718    339.77215   -1034.1996   -1599.9756    805.15156   -1373.9718            0            0            0            0            0   -579.14772   -28.213507 
 1065000    277.80677   -351.17677    865.07772    29987.998   -1375.5717    330.40759   -1045.1641   -1584.3207    788.13487   -1375.5717            0            0            0            0            0   -579.38587   -28.033317 
 1070000    279.62373    639.93785    902.22084    28753.435   -1439.5946    332.56858    -1107.026   -1654.8485    794.34757   -1439.5946            0            0            0            0            0   -579.09362    -29.23696 
 1075000    261.77342   -373.76775    902.46459    28745.669   -1475.5635    311.33844   -1164.2251   -1692.3077    796.01384   -1475.5635            0            0            0            0            0   -579.26962   -29.244858 
 1080000    289.67804    164.33379    891.49921    29099.239   -1429.1185    344.52661   -1084.5919   -1646.9212     796.9154   -1429.1185            0            0            0            0            0   -579.11271   -28.889519 
 1085000    247.29756    763.75745     900.4968    28808.485   -1434.7058    294.12168   -1140.5841   -1648.9303    793.46686   -1434.7058            0            0            0            0            0   -579.24236   -29.181091 
 1090000    281.28956    299.82544    888.39403    29200.949   -1421.7028    334.54983    -1087.153   -1631.2039    788.64563   -1421.7028            0            0            0            0            0   -579.14454   -28.788894 
 1095000    278.93486   -296.33199    879.69838    29489.595   -1405.5861    331.74929   -1073.8368   -1626.6685    800.34941   -1405.5861            0            0            0            0            0   -579.26704   -28.507107 
 1100000    266.17685    157.25409    868.02082    29886.321   -1360.2544    316.57563   -1043.6787   -1585.1418    804.23516   -1360.2544            0            0            0            0            0   -579.34772    -28.12869 
 1105000    284.56268    9.4697646    875.90918    29617.167   -1390.8207     338.4427    -1052.378   -1606.7466    795.27449   -1390.8207            0            0            0            0            0   -579.34861   -28.384316 
 1110000     275.8371   -79.345661    881.62453    29425.167   -1411.9072    328.06498   -1083.8422   -1623.6981    791.00156   -1411.9072            0            0            0            0            0   -579.21062   -28.569525 
 1115000    296.49478   -397.43606    878.40984    29532.853    -1407.451    352.63406   -1054.8169   -1624.7989    796.62417    -1407.451            0            0            0            0            0   -579.27624   -28.465351 
 1120000    279.25837      543.534    895.94389    28954.881   -1418.1134    332.13404   -1085.9793   -1641.5002    802.47269   -1418.1134            0            0            0            0            0   -579.08587   -29.033552 
 1125000    292.13129    249.04453    878.77343    29520.634   -1389.1323    347.44436    -1041.688   -1617.7481    807.99736   -1389.1323            0            0            0            0            0   -579.38153   -28.477134 
 1130000    263.14893   -403.12437    873.98959    29682.217   -1396.6353    312.97439   -1083.6609   -1615.5732    798.02524   -1396.6353            0            0            0            0            0   -579.08725   -28.322111 
 1135000    278.13053   -421.12232    870.09706    29815.005   -1387.5835    330.79266   -1056.7908   -1605.4154    797.14128   -1387.5835            0            0            0            0            0   -579.30936   -28.195971 
 1140000    283.66052    66.631298    894.71925    28994.513    -1439.093    337.36971   -1101.7233   -1657.3026    797.54222    -1439.093            0            0            0            0            0   -579.33264   -28.993867 
 1145000    266.41963    679.80863     896.0918    28950.101   -1418.9942    316.86437   -1102.1299   -1634.6815    794.84052   -1418.9942            0            0            0            0            0   -579.15327   -29.038345 
 1150000    274.15419   -439.34382    877.84935    29551.709   -1409.2823    326.06343   -1083.2188   -1629.4528    799.38031   -1409.2823            0            0            0            0            0   -579.20975   -28.447188 
 1155000    303.09283    218.48473    883.68485    29356.561   -1406.6659    360.48141   -1046.1845   -1631.7872    804.29635   -1406.6659            0            0            0            0            0   -579.17506   -28.636291 
 1160000     282.5182   -15.167333    871.70602    29759.974   -1372.7958     336.0111   -1036.7847   -1595.8253    802.34888   -1372.7958            0            0            0            0            0   -579.31937    -28.24811 
 1165000    256.32528   -55.909579    878.99891    29513.061   -1386.7671    304.85874   -1081.9083   -1614.1092    806.60011   -1386.7671            0            0            0            0            0   -579.25798    -28.48444 
 1170000    258.52863   -103.63999    893.54429    29032.639   -1441.0038    307.47927   -1133.5246   -1655.6861    794.00248   -1441.0038            0            0            0            0            0    -579.3202   -28.955791 
 1175000    281.45654   -176.12901    887.78045    29221.131   -1433.4518    334.74843   -1098.7034    -1643.639    789.49011   -1433.4518            0            0            0            0            0     -579.303   -28.769011 
 1180000    298.38768   -207.52877    874.46003    29666.249   -1399.0461    354.88536   -1044.1608   -1616.0655    796.43776   -1399.0461            0            0            0            0            0    -579.4184   -28.337355 
 1185000    271.38273   -208.12739    876.31027    29603.611   -1398.7766     322.7672   -1076.0094   -1610.4889    791.16456   -1398.7766            0            0            0            0            0   -579.45228   -28.397314 
 1190000    275.86031   -273.48728    877.09116    29577.255   -1407.4918    328.09259   -1079.3992   -1631.5647     803.3363   -1407.4918            0            0            0            0            0   -579.26334   -28.422619 
 1195000     280.8173    584.23186    879.18062    29506.961   -1364.8571    333.98815    -1030.869   -1591.7899    806.24025   -1364.8571            0            0            0            0            0   -579.30746   -28.490329 
 1200000    261.81592    84.608732    881.06227    29443.944   -1390.8305    311.38898   -1079.4415   -1604.7913    793.21516   -1390.8305            0            0            0            0            0   -579.25436   -28.551305 
 1205000    270.28026   -205.95514    884.68381    29323.413   -1414.3512      321.456   -1092.8952   -1635.3634    800.17155   -1414.3512            0            0            0            0            0   -579.15932   -28.668663 
 1210000    270.16997   -12.725533    880.66245    29457.312   -1396.5853    321.32483   -1075.2605   -1616.4755    798.99736   -1396.5853            0            0            0            0            0   -579.10716   -28.538348 
 1215000     266.7688   -106.13489    896.34361    28941.969   -1447.6356    317.27966   -1130.3559    -1658.948    790.75465   -1447.6356            0            0            0            0            0   -579.44226   -29.046505 
 1220000    277.22904    142.15661    888.34387    29202.598   -1418.3387    329.72047   -1088.6182    -1631.019    792.15625   -1418.3387            0            0            0            0            0   -579.47596   -28.787269 
 1225000    267.19335    252.02937    893.79898    29024.366   -1432.6114    317.78459   -1114.8268   -1651.2743    797.85898   -1432.6114            0            0            0            0            0   -579.19615   -28.964045 
 1230000    265.99429   -191.58957    893.84283    29022.942   -1441.1174     316.3585   -1124.7589   -1664.1119    802.12954   -1441.1174            0            0            0            0            0   -579.13501   -28.965466 
 1235000    280.97042   -123.97961    882.40163    29399.253   -1413.5021    334.17027   -1079.3319   -1631.7459    797.26321   -1413.5021            0            0            0            0            0   -579.01946   -28.594707 
 1240000    305.40804   -9.5967662    889.19747    29174.564   -1430.8776    363.23498   -1067.6426   -1645.2031    793.53018   -1430.8776            0            0            0            0            0   -579.20471    -28.81493 
 1245000    271.95015   -106.44834    894.73459    28994.015    -1445.127    323.44206   -1121.6849   -1657.4594    791.61135    -1445.127            0            0            0            0            0   -579.27888   -28.994364 
 1250000    268.59997   -412.59886    904.60335    28677.706   -1479.7489    319.45755   -1160.2914   -1695.2963    794.85279   -1479.7489            0            0            0            0            0   -579.30536   -29.314166 
 1255000    264.98468    303.42018    914.97507    28352.629   -1487.0076    315.15773   -1171.8499   -1703.1514    795.30578   -1487.0076            0            0            0            0            0   -579.16194   -29.650267 
 1260000    258.61452   -100.91047    880.51664     29462.19   -1404.5845    307.58143   -1097.0031   -1622.5153    797.17114   -1404.5845            0            0            0            0            0   -579.24035   -28.533623 
 1265000      255.884    -209.2391    887.61254    29226.658   -1432.1651     304.3339   -1127.8312   -1642.8574    790.02611   -1432.1651            0            0            0            0            0   -579.33378    -28.76357 
 1270000    277.77815    208.28175    886.56361    29261.238   -1412.1259    330.37355   -1081.7523   -1623.7978    790.94235   -1412.1259            0            0            0            0            0   -579.27049   -28.729578 
 1275000      267.276    35.732847    882.74344    29387.869   -1405.6631     317.8829   -1087.7802   -1620.7068    794.27724   -1405.6631            0            0            0            0            0   -579.23352   -28.605784 
 1280000     285.5689   -35.869688    891.22424    29108.217   -1440.8247    339.63943   -1101.1853   -1654.2452    792.72597   -1440.8247            0            0            0            0            0    -579.3055   -28.880609 
 1285000    279.10474   -474.58745    868.31353    29876.246   -1389.1262    331.95133   -1057.1748   -1603.8691    793.99625   -1389.1262            0            0            0            0            0   -579.25332   -28.138175 
 1290000    269.57135   -187.50183    868.37489    29874.135   -1368.6564    320.61285   -1048.0435   -1595.8748    806.63833   -1368.6564            0            0            0            0            0    -579.4199   -28.140163 
 1295000    291.57322    633.29092    882.49144    29396.261   -1386.2252    346.78062   -1039.4445   -1605.6195    798.56704   -1386.2252            0            0            0            0            0   -579.17272   -28.597618 
 1300000    276.91819    37.171527    899.89184    28827.852   -1461.9862    329.35077   -1132.6355   -1674.9947    792.09848   -1461.9862            0            0            0            0            0      -579.09   -29.161487 
 1305000     263.8492   -34.926746    895.92342    28955.543   -1443.8782    313.80726    -1130.071   -1659.6683    795.03001   -1443.8782            0            0            0            0            0   -579.23992   -29.032888 
 1310000     288.6531   -513.17573    896.30748    28943.135   -1463.9068     343.3076   -1120.5992   -1680.7188    796.15569   -1463.9068            0            0            0            0            0   -579.34365   -29.045334 
 1315000    287.50401    226.00097    897.84145    28893.686   -1443.8069    341.94095   -1101.8659   -1660.8209    796.48432   -1443.8069            0            0            0            0            0   -579.47024   -29.095043 
 1320000     295.4377    -389.7931    884.17524     29340.28    -1433.492    351.37682   -1082.1152   -1647.1395    792.78403    -1433.492            0            0            0            0            0   -579.13648   -28.652182 
 1325000    274.87121    165.31621    899.73062    28833.017   -1452.4382     326.9162    -1125.522   -1669.8304    796.69128   -1452.4382            0            0            0            0            0   -579.29899   -29.156263 
 1330000    269.33797   -145.49382    894.80261    28991.812   -1450.0006    320.33528   -1129.6653   -1661.0218    790.22514   -1450.0006            0            0            0            0            0   -579.20397   -28.996568 
 1335000    268.02333   -94.682207     885.8705    29284.132   -1428.0536    318.77173   -1109.2819   -1637.0396    788.30022   -1428.0536            0            0            0            0            0   -579.31421   -28.707118 
 1340000    257.95113    113.68638    891.68851    29093.061   -1421.7479    306.79242   -1114.9554   -1640.1641    797.76121   -1421.7479            0            0            0            0            0   -579.34495   -28.895654 
 1345000    264.89863   -158.59617    884.12913     29341.81   -1431.4549    315.05539   -1116.3995   -1646.3496    793.98965   -1431.4549            0            0            0            0            0   -579.09496   -28.650688 
 1350000    270.82153    152.63685     885.4415     29298.32   -1404.8678    322.09975   -1082.7681   -1620.3926    794.81669   -1404.8678            0            0            0            0            0   -579.29191   -28.693216 
 1355000    273.20984    174.12415    895.54142    28967.894   -1445.3738    324.94027   -1120.4336   -1656.1758    790.14239   -1445.3738            0            0            0            0            0   -579.34045    -29.02051 
 1360000    278.73858    99.526869    876.14871     29609.07   -1381.6788    331.51584   -1050.1629   -1604.9542    802.43338   -1381.6788            0            0            0            0            0   -579.15793   -28.392078 
 1365000    268.78012    113.73961    879.99464    29479.666   -1395.0396    319.67181   -1075.3677   -1617.3265    801.56903   -1395.0396            0            0            0            0            0   -579.28206   -28.516708 
 1370000      267.952   -518.75596    885.76322    29287.679   -1433.3813    318.68689   -1114.6944   -1653.1517    798.94333   -1433.3813            0            0            0            0            0   -579.17296   -28.703641 
 1375000    266.65816     120.5166    882.91542    29382.145   -1399.6935    317.14807   -1082.5454    -1618.827    798.45075   -1399.6935            0            0            0            0            0   -579.31718   -28.611357 
 1380000    259.42178   -136.87564    876.96572    29581.485   -1398.1289    308.54153   -1089.5874   -1612.0873    793.34529   -1398.1289            0            0            0            0            0   -579.38693   -28.418554 
 1385000    282.03332    -609.3075    881.63691    29424.753   -1431.0186    335.43441   -1095.5842   -1645.5656    793.59582   -1431.0186            0            0            0            0            0   -579.04884   -28.569926 
 1390000    258.74278    47.656664    892.74343    29058.683   -1432.2256    307.73396   -1124.4916   -1643.2448    790.03939   -1432.2256            0            0            0            0            0    -579.0202   -28.929839 
 1395000    275.95034   -325.80556    878.41739    29532.599   -1410.6197    328.19967     -1082.42   -1627.7832    796.48921   -1410.6197            0            0            0            0            0   -579.32568   -28.465596 
 1400000    278.18635    -683.3881    882.23599    29404.773   -1435.4342    330.85905   -1104.5752   -1645.3709    789.17602   -1435.4342            0            0            0            0            0   -579.23929    -28.58934 
 1405000    258.22566   -303.06021    887.33305    29235.864   -1427.6017    307.11894   -1120.4827   -1643.5859    795.30722   -1427.6017            0            0            0            0            0   -579.32301   -28.754513 
 1410000    274.78177    -121.0382    881.32168    29435.278   -1403.7236    326.80983   -1076.9138   -1625.1098    800.65495   -1403.7236            0            0            0            0            0   -579.26878   -28.559711 
 1415000    282.60067   -257.32149    878.80784    29519.478   -1403.3738    336.10919   -1067.2646   -1621.7978    797.59812   -1403.3738            0            0            0            0            0   -579.17405   -28.478249 
 1420000    292.60422   -177.23491    881.22808    29438.404   -1414.4383    348.00684   -1066.4314   -1636.1291    800.60715   -1414.4383            0            0            0            0            0   -578.91635   -28.556678 
 1425000    270.49474   -55.593036    877.68086    29557.382   -1395.1529    321.71108   -1073.4418    -1613.912    798.10165   -1395.1529            0            0            0            0            0   -579.34261   -28.441728 
 1430000    279.07211    418.32168    892.55639    29064.773   -1414.1613    331.91251   -1082.2488   -1625.9545    791.08366   -1414.1613            0            0            0            0            0   -579.29049   -28.923778 
 1435000    272.05845    637.00864    894.58157    28998.975   -1408.6425    323.57088   -1085.0716   -1630.8772    801.32486   -1408.6425            0            0            0            0            0   -579.09017   -28.989405 
 1440000    260.63345    -246.6074    890.24921    29140.097   -1431.3555    309.98262   -1121.3729   -1649.4891     797.4979   -1431.3555            0            0            0            0            0   -579.36429   -28.849012 
 1445000     277.6919   -73.251484    890.54335    29130.473   -1430.0425    330.27098   -1099.7716   -1652.8052    801.73848   -1430.0425            0            0            0            0            0   -578.97585   -28.858544 
 1450000    288.96788    -123.0914     888.3938    29200.956   -1424.7971    343.68198   -1081.1152   -1643.2865    797.64368   -1424.7971            0            0            0            0            0   -579.15437   -28.788887 
 1455000    279.89672    128.90385     892.2587     29074.47   -1428.5325    332.89326   -1095.6392   -1648.0984    799.03035   -1428.5325            0            0            0            0            0   -579.46445   -28.914131 
 1460000    274.35348   -524.78379    886.46235     29264.58   -1433.1926    326.30045   -1106.8921   -1653.6628    799.65407   -1433.1926            0            0            0            0            0   -579.18379   -28.726297 
 1465000    270.60783    200.76143    888.28447     29204.55    -1406.432    321.84559   -1084.5864   -1631.3336    804.27434    -1406.432            0            0            0            0            0   -579.37271   -28.785344 
 1470000    270.79897   -380.64713    873.47067    29699.851   -1397.8025    322.07291   -1075.7296   -1617.1259    798.40155   -1397.8025            0            0            0            0            0   -579.07817   -28.305295 
 1475000    259.24542   -108.22907    879.34941    29501.298   -1399.4614    308.33178   -1091.1296   -1624.9706    804.40613   -1399.4614            0            0            0            0            0   -578.89696   -28.495799 
 1480000     285.5146     380.3538    901.56495    28774.354   -1444.7694    339.57485   -1105.1945   -1665.2146    799.79055   -1444.7694            0            0            0            0            0   -579.34528   -29.215705 
 1485000     280.1745    190.74237    888.75514    29189.084   -1412.9031    333.22364   -1079.6795   -1630.5383    796.60547   -1412.9031            0            0            0            0            0   -578.97025   -28.800596 
 1490000    275.58284   -170.12668    880.69164    29456.336   -1401.2648    327.76258   -1073.5022   -1623.2535    801.26684   -1401.2648            0            0            0            0            0   -579.27815   -28.539294 
 1495000    281.05662   -117.77358    887.64794    29225.493   -1419.9474    334.27278   -1085.6746   -1643.5533    803.04875   -1419.9474            0            0            0            0            0   -579.44282   -28.764717 
 1500000    257.11784    67.217885    884.63657    29324.979   -1420.1349    305.80136   -1114.3335   -1631.7911     791.0604   -1420.1349            0            0            0            0            0   -579.40417   -28.667132 
 1505000    255.03915   -63.426339    895.84059     28958.22   -1440.9286    303.32908   -1137.5995   -1658.6454    797.09998   -1440.9286            0            0            0            0            0   -579.38322   -29.030204 
 1510000     269.1651   -312.02826    881.75712    29420.742   -1418.0412    320.12968   -1097.9115   -1629.9108    791.11951   -1418.0412            0            0            0            0            0   -579.24997   -28.573822 
 1515000    269.59222    170.36378     890.5095     29131.58   -1423.9912    320.63768   -1103.3535    -1644.621    799.82249   -1423.9912            0            0            0            0            0   -579.19265   -28.857447 
 1520000    297.58623    215.01394    903.22594    28721.439   -1457.5814    353.93216   -1103.6493   -1684.2737    805.76324   -1457.5814            0            0            0            0            0   -579.07097   -29.269531 
 1525000    262.86799   -136.70931    884.75852    29320.937   -1420.2034    312.64026   -1107.5631   -1632.6511    791.65844   -1420.2034            0            0            0            0            0   -579.21069   -28.671084 
 1530000    273.76105    838.38472     891.2444    29107.559    -1408.051    325.59584   -1082.4551   -1615.4564    786.33521    -1408.051            0            0            0            0            0   -578.92982   -28.881262 
 1535000    263.05088   -94.050254    881.91743    29415.394   -1412.0919    312.85778   -1099.2342   -1627.1967    794.22917   -1412.0919            0            0            0            0            0   -579.12443   -28.579017 
 1540000    262.44379    675.52522     898.4046    28875.574   -1429.2385    312.13574   -1117.1028   -1640.1748    790.57458   -1429.2385            0            0            0            0            0   -579.63833   -29.113292 
 1545000    280.73153     83.90306    903.58119    28710.147   -1468.5924    333.88614   -1134.7062   -1676.2589    787.11919   -1468.5924            0            0            0            0            0   -579.45267   -29.281043 
 1550000    263.56363   -440.30059    874.99919    29647.969   -1397.0276    313.46761     -1083.56   -1613.6183     796.0715   -1397.0276            0            0            0            0            0   -579.48085   -28.354827 
 1555000    261.36407    165.18395    891.04854    29113.957   -1423.1763    310.85158   -1112.3247   -1639.8588    795.77694   -1423.1763            0            0            0            0            0   -579.09447   -28.874915 
 1560000    255.86001   -100.17142    890.33235    29137.376   -1435.9499    304.30536   -1131.6445   -1655.0839    798.16496   -1435.9499            0            0            0            0            0   -579.03098   -28.851707 
 1565000    274.64573    645.40776    892.93235    29052.535   -1411.2428    326.64803   -1084.5948    -1627.992     796.2036   -1411.2428            0            0            0            0            0    -579.4544   -28.935961 
 1570000    287.51207   -335.61025    886.55985    29261.362   -1426.9179    341.95053   -1084.9674   -1642.2559    794.57645   -1426.9179            0            0            0            0            0   -579.23846   -28.729457 
 1575000    278.33184     -250.645    887.65432    29225.283   -1426.9729    331.03209   -1095.9408   -1639.5607    791.41582   -1426.9729            0            0            0            0            0   -578.82799   -28.764924 
 1580000    286.03062   -142.95032    887.64283    29225.661   -1436.7951    340.18857   -1096.6066   -1647.6267    790.12517   -1436.7951            0            0            0            0            0   -579.29359   -28.764551 
 1585000    278.84449   -90.764134    891.68091    29093.309   -1428.9973     331.6418   -1097.3555   -1650.4891    801.01832   -1428.9973            0            0            0            0            0   -579.52648   -28.895408 
 1590000    280.21951     21.86362    880.80779    29452.452   -1403.7716    333.27717   -1070.4944   -1613.6412    789.22897   -1403.7716            0            0            0            0            0   -579.35935   -28.543058 
 1595000    294.38954    142.78427    877.15796    29575.002   -1383.8709     350.1302   -1033.7407   -1605.7411    801.09391   -1383.8709            0            0            0            0            0   -579.22369   -28.424783 
[...]
 4600000     268.9564    136.28495    890.68733    29125.764   -1438.0497    319.88147   -1118.1682   -1650.1361    791.26032   -1438.0497            0            0            0            0            0   -579.17393    -28.86321 
 4605000     271.6864   -98.695172    880.38343    29466.648    -1413.726    323.12838   -1090.5976   -1621.9467    787.55525    -1413.726            0            0            0            0            0   -579.33453   -28.529307 
 4610000    266.66198   -221.20634    885.18321    29306.869   -1414.9751    317.15261   -1097.8224   -1640.3831    804.83422   -1414.9751            0            0            0            0            0   -579.42616   -28.684846 
 4615000    285.44096    618.52646    894.74343    28993.729   -1423.6561    339.48727   -1084.1688   -1639.0406    794.56348   -1423.6561            0            0            0            0            0   -579.17894    -28.99465 
 4620000    272.75666    138.14743    908.90051    28542.121   -1471.7113    324.40128     -1147.31   -1689.0623     796.4297   -1471.7113            0            0            0            0            0   -579.07868   -29.453418 
 4625000    289.13794    118.49573     895.8007    28959.509   -1436.5512    343.88425   -1092.6669   -1647.4962     790.1682   -1436.5512            0            0            0            0            0   -579.22317   -29.028912 
 4630000    278.34545    394.91335    894.03275    29016.777   -1418.7634    331.04828   -1087.7151   -1635.7458    796.37477   -1418.7634            0            0            0            0            0   -579.39237    -28.97162 
 4635000    271.04206    352.35485    890.63324    29127.533   -1413.7928    322.36203   -1091.4307   -1628.1938    793.65084   -1413.7928            0            0            0            0            0   -579.24979   -28.861457 
 4640000    300.38093   -463.64997    894.49139    29001.899   -1452.3476    357.25602   -1095.0916   -1672.2687    799.26739   -1452.3476            0            0            0            0            0   -579.34631   -28.986483 
 4645000    278.12024    -167.4945    875.85501    29618.999   -1412.5068    330.78042   -1081.7263   -1616.3969    783.14723   -1412.5068            0            0            0            0            0   -579.25709    -28.38256 
 4650000    266.94803    809.40358    898.42946    28874.775   -1424.7094    317.49283   -1107.2165   -1637.3268    791.82862   -1424.7094            0            0            0            0            0    -579.2112   -29.114098 
 4655000    276.60621   -11.973931      893.734    29026.476   -1435.5987    328.97972    -1106.619   -1653.9579    797.53305   -1435.5987            0            0            0            0            0   -579.17381   -28.961939 
 4660000    279.53178    740.84397    887.64903    29225.457   -1393.2789    332.45922   -1060.8196    -1612.082    798.13003   -1393.2789            0            0            0            0            0   -579.32688   -28.764752 
 4665000    265.17388   -361.24478    882.39571     29399.45   -1423.0657    315.38276    -1107.683    -1643.731    799.84566   -1423.0657            0            0            0            0            0   -579.18038   -28.594515 
 4670000    267.22911   -674.85927    882.95724    29380.753   -1431.8146    317.82713   -1113.9875    -1650.924    798.49411   -1431.8146            0            0            0            0            0   -579.38468   -28.612712 
 4675000    263.44817    147.77986    890.67684    29126.107   -1428.9855    313.33029   -1115.6553   -1638.6075    788.91233   -1428.9855            0            0            0            0            0   -579.29038    -28.86287 
 4680000    274.36477    371.44835    884.44311    29331.393   -1395.0009    326.31388    -1068.687   -1615.2051    799.35882   -1395.0009            0            0            0            0            0   -579.15459   -28.660863 
 4685000     273.3549   -276.98247    879.83715    29484.943   -1410.8147     325.1128   -1085.7019    -1629.003    797.53864   -1410.8147            0            0            0            0            0   -579.35031   -28.511604 
 4690000    291.60681   -31.620077    877.56295    29561.354   -1398.4484    346.82058   -1051.6278   -1610.2434    791.06705   -1398.4484            0            0            0            0            0   -579.27203   -28.437907 
 4695000    277.51831    59.551887    873.64076    29694.069    -1385.723    330.06452   -1055.6585   -1603.3564    796.91728    -1385.723            0            0            0            0            0    -579.2839   -28.310807 
 4700000     265.1784    -223.7061     896.8829    28924.566   -1451.8528    315.38813   -1136.4647    -1668.299    795.74347   -1451.8528            0            0            0            0            0   -579.29728   -29.063981 
 4705000    302.06968    195.35186    884.76956    29320.571   -1413.7286    359.26452   -1054.4641   -1628.5897    794.04374   -1413.7286            0            0            0            0            0   -579.18272   -28.671441 
 4710000    284.85744    285.69053    894.88378    28989.182   -1443.0176    338.79326   -1104.2244    -1647.673     783.9541   -1443.0176            0            0            0            0            0   -579.29877   -28.999198 
 4715000    262.68015   -102.18817    884.73264    29321.795   -1409.6758    312.41686    -1097.259   -1626.1806    795.90605   -1409.6758            0            0            0            0            0   -579.40124   -28.670245 
 4720000    263.23148    203.69925    893.95229    29019.388   -1425.5787    313.07257   -1112.5061   -1647.1875    800.75464   -1425.5787            0            0            0            0            0   -579.14575   -28.969013 
 4725000    287.50941   -164.65792    884.84817    29317.966   -1419.0772    341.94736   -1077.1298   -1637.0331    797.32154   -1419.0772            0            0            0            0            0   -579.36557   -28.673989 
 4730000    303.06691   -87.355612     872.9602    29717.218   -1385.4714    360.45057   -1025.0209   -1604.8239    798.52415   -1385.4714            0            0            0            0            0   -579.17165   -28.288753 
 4735000    280.62715   -364.76667    876.58405    29594.365   -1411.0261      333.762   -1077.2641   -1624.7689    792.98191   -1411.0261            0            0            0            0            0   -579.23914   -28.406186 
 4740000    277.47291    354.72184    885.27242    29303.916   -1406.8202    330.01052   -1076.8097   -1619.6315    792.24242   -1406.8202            0            0            0            0            0   -579.43119   -28.687737 
 4745000    271.89026   -149.23088    888.69555    29191.042   -1429.6137    323.37083   -1106.2428   -1643.9306    793.84138   -1429.6137            0            0            0            0            0   -579.52448   -28.798665 
 4750000     278.1815    443.58833    905.52626    28648.478   -1454.2288    330.85327   -1123.3756   -1675.0181    800.14986   -1454.2288            0            0            0            0            0   -579.36064   -29.344074 
 4755000     282.2377   -170.70882    894.80476    28991.742   -1450.6286     335.6775   -1114.9511   -1660.8466    789.43282   -1450.6286            0            0            0            0            0   -579.21481   -28.996638 
 4760000    257.47514    173.45403    897.41453    28907.431   -1436.9683    306.22631    -1130.742   -1657.0802    799.29941   -1436.9683            0            0            0            0            0   -579.18754   -29.081209 
 4765000     262.6316    206.95254    898.89867    28859.703   -1440.9234    312.35912   -1128.5642   -1659.7993    798.08916   -1440.9234            0            0            0            0            0   -579.21325   -29.129303 
 4770000    288.64837   -80.450865    880.06793    29477.212   -1407.8975    343.30198   -1064.5955   -1624.2019    795.75328   -1407.8975            0            0            0            0            0   -579.44884   -28.519082 
 4775000    264.80026    457.42419    901.63636    28772.075   -1444.2919    314.93839   -1129.3535   -1663.4501    798.41869   -1444.2919            0            0            0            0            0   -579.26055   -29.218019 
 4780000    265.72315    38.453207    891.89413    29086.354   -1431.1438    316.03602   -1115.1078   -1643.0493    791.37258   -1431.1438            0            0            0            0            0    -579.4671   -28.902317 
 4785000    268.77352    16.391877    888.21905    29206.701   -1433.6203    319.66396   -1113.9563   -1639.5978    785.20479   -1433.6203            0            0            0            0            0   -579.22726   -28.783224 
 4790000    272.83275   -292.17224    890.41031    29134.825   -1439.3545    324.49178   -1114.8627   -1657.5126    797.48851   -1439.3545            0            0            0            0            0   -579.33041   -28.854233 
 4795000     280.3544   -26.388233    885.33371    29301.887   -1417.7147     333.4376   -1084.2771   -1631.9962    793.56676   -1417.7147            0            0            0            0            0   -579.28522   -28.689723 
 4800000    310.39216    98.203291    885.55216    29294.659   -1413.1576    369.16281   -1043.9948    -1625.019    791.16483   -1413.1576            0            0            0            0            0   -579.30344   -28.696802 
 4805000    286.87071   -45.423587    894.80742    28991.656   -1450.5537    341.18774    -1109.366   -1661.3136      790.066   -1450.5537            0            0            0            0            0   -579.30609   -28.996724 
 4810000    279.56911   -291.29218    865.44295    29975.342   -1368.5767    332.50362    -1036.073   -1596.4105    806.84981   -1368.5767            0            0            0            0            0   -579.01594   -28.045152 
 4815000    274.18268    245.78769    885.09346    29309.841   -1405.1416     326.0973   -1079.0443   -1618.0045    792.22041   -1405.1416            0            0            0            0            0   -579.35749   -28.681938 
 4820000    275.37692   -19.485341    883.87336      29350.3   -1403.9275    327.51767   -1076.4098   -1619.9768    795.16884   -1403.9275            0            0            0            0            0   -579.11951     -28.6424 
 4825000    272.92537     506.0096    886.67123    29257.686   -1405.1245    324.60194   -1080.5225   -1618.8288    792.79642   -1405.1245            0            0            0            0            0   -579.09211   -28.733066 
 4830000    276.58887   -253.42646    875.72016     29623.56   -1398.0448    328.95909   -1069.0857   -1618.7241    799.83977   -1398.0448            0            0            0            0            0   -579.16044   -28.378191 
 4835000    283.96601    231.15267    885.30931    29302.695   -1410.3268    337.73304   -1072.5938   -1630.5528     799.3255   -1410.3268            0            0            0            0            0   -579.09951   -28.688932 
 4840000    285.40682    95.330167    904.93224    28667.283   -1475.2584    339.44667   -1135.8118   -1685.0267    789.13414   -1475.2584            0            0            0            0            0   -579.36581   -29.324824 
 4845000    278.75335    736.14089    900.42374    28810.822   -1431.9205    331.53341   -1100.3871   -1646.9925    794.14433   -1431.9205            0            0            0            0            0   -579.07243   -29.178724 
 4850000    301.50232    58.069584    889.88272    29152.098   -1422.6451    358.58973   -1064.0554   -1639.5559    796.15106   -1422.6451            0            0            0            0            0   -579.24026   -28.837136 
 4855000    284.00083   -258.88876    877.00901    29580.025   -1392.2791    337.77446   -1054.5046    -1610.897     797.8691   -1392.2791            0            0            0            0            0   -579.25118   -28.419957 
 4860000    295.03742    447.16604    892.48294    29067.165   -1426.4663    350.90075   -1075.5655    -1635.476    788.36525   -1426.4663            0            0            0            0            0   -579.35551   -28.921398 
 4865000    280.45518    87.880335    888.98342    29181.589   -1422.8278    333.55747   -1089.2703   -1636.1461    792.78878   -1422.8278            0            0            0            0            0   -579.47054   -28.807994 
 4870000    276.88615   -101.50384    882.21776     29405.38   -1413.5909    329.31266   -1084.2783   -1629.5616    795.29047   -1413.5909            0            0            0            0            0   -579.31984   -28.588749 
 4875000    279.90632    409.34595    899.80768    28830.548   -1431.6906    332.90468   -1098.7859   -1652.7283    800.22285   -1431.6906            0            0            0            0            0    -579.1852    -29.15876 
 4880000    284.65607   -150.81835    869.49151     29835.77   -1374.0565    338.55377   -1035.5027   -1591.5968    796.65199   -1374.0565            0            0            0            0            0   -579.11172   -28.176348 
 4885000     266.5998   -36.497144    898.80218    28862.801   -1454.8695    317.07866   -1137.7908   -1664.5986    788.97405   -1454.8695            0            0            0            0            0     -579.245   -29.126176 
 4890000      271.029    409.17757    892.94904    29051.992   -1430.1742     322.3465   -1107.8277   -1649.2897    798.46574   -1430.1742            0            0            0            0            0   -579.35023   -28.936502 
 4895000    299.76896    64.008774    877.65286    29558.325   -1395.8238    356.52817   -1039.2957   -1609.4315    792.91547   -1395.8238            0            0            0            0            0   -579.30787   -28.440821 
 4900000    268.46897    220.56098    889.08878    29178.131   -1419.6843    319.30175   -1100.3826   -1637.2594    796.67378   -1419.6843            0            0            0            0            0    -579.0987   -28.811408 
 4905000    243.56092   -192.24766    881.53262    29428.235   -1424.5199    289.67752   -1134.8424   -1633.5011    788.16088   -1424.5199            0            0            0            0            0    -579.1797   -28.566547 
 4910000    262.34099   -300.50052    881.34413    29434.528   -1414.3229    312.01348   -1102.3094   -1631.8559    796.75667   -1414.3229            0            0            0            0            0   -579.22368   -28.560439 
 4915000    270.14267   -73.038022    897.60906    28901.166   -1452.6783    321.29235    -1131.386   -1662.0471      788.545   -1452.6783            0            0            0            0            0   -579.17624   -29.087513 
 4920000     272.2217     225.7475    896.54344    28935.518   -1437.7435    323.76503   -1113.9785   -1652.9313     794.2565   -1437.7435            0            0            0            0            0   -579.06871    -29.05298 
 4925000    271.30573    40.678519     891.3527    29104.022   -1429.7975    322.67563   -1107.1218   -1647.3878    796.63483   -1429.7975            0            0            0            0            0   -579.04446   -28.884772 
 4930000    275.69181    657.35769    902.19198    28754.355   -1431.7683    327.89218   -1103.8761   -1648.7038     796.2481   -1431.7683            0            0            0            0            0   -579.31255   -29.236025 
 4935000    262.49607    9.2945924    895.10499    28982.018   -1448.1236    312.19791   -1135.9257   -1659.2799    790.49666   -1448.1236            0            0            0            0            0   -579.34031   -29.006367 
 4940000     266.6244    16.096495    892.91357    29053.146   -1439.9098    317.10792   -1122.8019   -1655.3281    794.92768   -1439.9098            0            0            0            0            0   -579.50938   -28.935352 
 4945000    278.54094   -254.14129    874.46186    29666.187   -1395.2153    331.28077   -1063.9345   -1612.8696    796.90555   -1395.2153            0            0            0            0            0   -579.25119   -28.337415 
 4950000    280.44358    111.36563     892.5191    29065.987   -1429.1312    333.54367   -1095.5876   -1647.2192    797.06633   -1429.1312            0            0            0            0            0    -578.9784    -28.92257 
 4955000    278.06031    67.579551    891.27098     29106.69    -1424.967    330.70914   -1094.2579   -1643.6218    797.18946    -1424.967            0            0            0            0            0   -578.53466   -28.882124 
 4960000    271.66736    111.32199    891.42151    29101.775   -1433.3032    323.10574   -1110.1975   -1650.5614    796.45436   -1433.3032            0            0            0            0            0   -579.19622   -28.887002 
 4965000    275.15515   -186.67619    874.17051    29676.074   -1396.8234    327.25391   -1069.5694   -1617.3215    799.56093   -1396.8234            0            0            0            0            0   -579.06282   -28.327973 
 4970000    282.59341    711.31435    894.49075    29001.919   -1412.4757    336.10055   -1076.3751    -1629.946    796.59392   -1412.4757            0            0            0            0            0   -579.12358   -28.986462 
 4975000    270.59829    155.52408    884.00111    29346.059   -1415.9372    321.83424    -1094.103   -1632.3185    795.28831   -1415.9372            0            0            0            0            0   -578.90702   -28.646539 
 4980000    273.23854    353.92111    902.89173     28732.07   -1460.7267     324.9744   -1135.7523   -1667.7037    786.32707   -1460.7267            0            0            0            0            0   -579.35009     -29.2587 
 4985000    277.05992    440.88691    902.14083    28755.985   -1439.2315    329.51933   -1109.7121   -1659.7243    799.80006   -1439.2315            0            0            0            0            0   -579.30724   -29.234367 
 4990000    283.97681    179.56984    887.63128    29226.042   -1419.2516    337.74589   -1081.5057   -1636.2547    796.32239   -1419.2516            0            0            0            0            0   -579.31922   -28.764177 
 4995000    280.31036   -181.93864    885.54277     29294.97   -1419.3254    333.38522   -1085.9401   -1636.8636    796.73306   -1419.3254            0            0            0            0            0    -579.1948   -28.696498 
 5000000    278.24112    14.322494    877.58075    29560.754   -1400.4512    330.92419    -1069.527     -1615.19    793.96496   -1400.4512            0            0            0            0            0   -579.22618   -28.438484 
Loop time of 300799 on 1 procs for 5000000 steps with 2400 atoms

Performance: 1.436 ns/day, 16.711 hours/ns, 16.622 timesteps/s
99.8% CPU use with 1 MPI tasks x 1 OpenMP threads

MPI task timing breakdown:
Section |  min time  |  avg time  |  max time  |%varavg| %total
---------------------------------------------------------------
Pair    | 2.7863e+05 | 2.7863e+05 | 2.7863e+05 |   0.0 | 92.63
Bond    | 9.8417     | 9.8417     | 9.8417     |   0.0 |  0.00
Kspace  | 9014.8     | 9014.8     | 9014.8     |   0.0 |  3.00
Neigh   | 7473.7     | 7473.7     | 7473.7     |   0.0 |  2.48
Comm    | 842.73     | 842.73     | 842.73     |   0.0 |  0.28
Output  | 0.095384   | 0.095384   | 0.095384   |   0.0 |  0.00
Modify  | 4659.6     | 4659.6     | 4659.6     |   0.0 |  1.55
Other   |            | 170.6      |            |       |  0.06

Nlocal:        2400.00 ave        2400 max        2400 min
Histogram: 1 0 0 0 0 0 0 0 0 0
Nghost:        19141.0 ave       19141 max       19141 min
Histogram: 1 0 0 0 0 0 0 0 0 0
Neighs:    1.88671e+06 ave 1.88671e+06 max 1.88671e+06 min
Histogram: 1 0 0 0 0 0 0 0 0 0

Total # of neighbors = 1886707
Ave neighs/atom = 786.12792
Ave special neighs/atom = 8.5000000
Neighbor list builds = 74437
Dangerous builds = 0
Total wall time: 100:10:33
