LAMMPS (29 Sep 2021 - Update 2)
OMP_NUM_THREADS environment is not set. Defaulting to 1 thread. (src/comm.cpp:98)
  using 1 OpenMP thread(s) per MPI task
Reading data file ...
  orthogonal box = (-15.466318 -15.466318 -15.466318) to (15.466318 15.466318 15.466318)
  1 by 1 by 1 MPI processor grid
  reading atoms ...
  2400 atoms
  scanning bonds ...
  3 = max bonds/atom
  scanning angles ...
  3 = max angles/atom
  scanning dihedrals ...
  4 = max dihedrals/atom
  reading bonds ...
  2400 bonds
  reading angles ...
  3600 angles
  reading dihedrals ...
  3600 dihedrals
Finding 1-2 1-3 1-4 neighbors ...
  special bond factors lj:    0        0        0       
  special bond factors coul:  0        0        0       
     3 = max # of 1-2 neighbors
     4 = max # of 1-3 neighbors
     8 = max # of 1-4 neighbors
    10 = max # of special neighbors
  special bonds CPU = 0.001 seconds
  read_data CPU = 0.014 seconds
  200 rigid bodies with 2400 atoms
PPPM initialization ...
  using 12-bit tables for long-range coulomb (src/kspace.cpp:340)
  G vector (1/distance) = 0.1428774
  grid = 6 6 6
  stencil order = 5
  estimated absolute RMS force accuracy = 0.0078609937
  estimated relative force accuracy = 2.3673149e-05
  using double precision FFTW3
  3d grid and FFT values/proc = 1331 216
Neighbor list info ...
  update every 1 steps, delay 10 steps, check yes
  max neighbors/atom: 2000, page size: 100000
  master list distance cutoff = 16.655
  ghost atom cutoff = 16.655
  binsize = 8.3275, bins = 4 4 4
  1 neighbor lists, perpetual/occasional/extra = 1 0 0
  (1) pair lj/cut/coul/long, perpetual
      attributes: half, newton on
      pair build: half/bin/newton
      stencil: half/bin/3d
      bin: standard
Setting up Verlet run ...
  Unit style    : real
  Current step  : 0
  Time step     : 1
Per MPI rank memory allocation (min/avg/max) = 29.12 | 29.12 | 29.12 Mbytes
Step Temp E_pair E_mol TotEng Press 
       0    343.07804     12647.25            0    13055.287    96518.677 
    5000    9656.4052     1559.608            0    13044.388    71890.001 
Loop time of 194.217 on 1 procs for 5000 steps with 2400 atoms

Performance: 2.224 ns/day, 10.790 hours/ns, 25.744 timesteps/s
100.0% CPU use with 1 MPI tasks x 1 OpenMP threads

MPI task timing breakdown:
Section |  min time  |  avg time  |  max time  |%varavg| %total
---------------------------------------------------------------
Pair    | 161.47     | 161.47     | 161.47     |   0.0 | 83.14
Bond    | 0.0052489  | 0.0052489  | 0.0052489  |   0.0 |  0.00
Kspace  | 4.9044     | 4.9044     | 4.9044     |   0.0 |  2.53
Neigh   | 26.228     | 26.228     | 26.228     |   0.0 | 13.50
Comm    | 0.70913    | 0.70913    | 0.70913    |   0.0 |  0.37
Output  | 3.2408e-05 | 3.2408e-05 | 3.2408e-05 |   0.0 |  0.00
Modify  | 0.79515    | 0.79515    | 0.79515    |   0.0 |  0.41
Other   |            | 0.1016     |            |       |  0.05

Nlocal:        2400.00 ave        2400 max        2400 min
Histogram: 1 0 0 0 0 0 0 0 0 0
Nghost:        19213.0 ave       19213 max       19213 min
Histogram: 1 0 0 0 0 0 0 0 0 0
Neighs:    1.88263e+06 ave 1.88263e+06 max 1.88263e+06 min
Histogram: 1 0 0 0 0 0 0 0 0 0

Total # of neighbors = 1882630
Ave neighs/atom = 784.42917
Ave special neighs/atom = 8.5000000
Neighbor list builds = 430
Dangerous builds = 59
  create bodies CPU = 0.000 seconds
  200 rigid bodies with 2400 atoms
  3.8930168 = max distance from body owner to body atom
PPPM initialization ...
  using 12-bit tables for long-range coulomb (src/kspace.cpp:340)
  G vector (1/distance) = 0.1428774
  grid = 6 6 6
  stencil order = 5
  estimated absolute RMS force accuracy = 0.0078609937
  estimated relative force accuracy = 2.3673149e-05
  using double precision FFTW3
  3d grid and FFT values/proc = 1331 216
Setting up Verlet run ...
  Unit style    : real
  Current step  : 5000
  Time step     : 1
Per MPI rank memory allocation (min/avg/max) = 36.97 | 36.97 | 36.97 Mbytes
Step Temp E_pair E_mol TotEng Press Volume 
    5000    9656.4052     1559.608            0    13044.388    87600.729    29597.212 
 1005000    342.01287   -1169.6191            0   -762.84842   -128.71611    32588.241 
Loop time of 31625.4 on 1 procs for 1000000 steps with 2400 atoms

Performance: 2.732 ns/day, 8.785 hours/ns, 31.620 timesteps/s
100.0% CPU use with 1 MPI tasks x 1 OpenMP threads

MPI task timing breakdown:
Section |  min time  |  avg time  |  max time  |%varavg| %total
---------------------------------------------------------------
Pair    | 28968      | 28968      | 28968      |   0.0 | 91.60
Bond    | 1.8352     | 1.8352     | 1.8352     |   0.0 |  0.01
Kspace  | 994.77     | 994.77     | 994.77     |   0.0 |  3.15
Neigh   | 958.2      | 958.2      | 958.2      |   0.0 |  3.03
Comm    | 102.35     | 102.35     | 102.35     |   0.0 |  0.32
Output  | 3.0471e-05 | 3.0471e-05 | 3.0471e-05 |   0.0 |  0.00
Modify  | 575.05     | 575.05     | 575.05     |   0.0 |  1.82
Other   |            | 25.18      |            |       |  0.08

Nlocal:        2400.00 ave        2400 max        2400 min
Histogram: 1 0 0 0 0 0 0 0 0 0
Nghost:        18063.0 ave       18063 max       18063 min
Histogram: 1 0 0 0 0 0 0 0 0 0
Neighs:    1.70547e+06 ave 1.70547e+06 max 1.70547e+06 min
Histogram: 1 0 0 0 0 0 0 0 0 0

Total # of neighbors = 1705470
Ave neighs/atom = 710.61250
Ave special neighs/atom = 8.5000000
Neighbor list builds = 17133
Dangerous builds = 0
PPPM initialization ...
  using 12-bit tables for long-range coulomb (src/kspace.cpp:340)
  G vector (1/distance) = 0.14078646
  grid = 6 6 6
  stencil order = 5
  estimated absolute RMS force accuracy = 0.0085116001
  estimated relative force accuracy = 2.5632431e-05
  using double precision FFTW3
  3d grid and FFT values/proc = 1331 216
Setting up Verlet run ...
  Unit style    : real
  Current step  : 0
  Time step     : 1
Per MPI rank memory allocation (min/avg/max) = 36.98 | 36.98 | 36.98 Mbytes
Step Temp Press v_dens Volume PotEng KinEng TotEng E_vdwl E_coul E_pair E_bond E_angle E_dihed E_impro E_mol E_long E_tail 
       0    342.01287     583.4424    796.05243    32588.241   -1169.6556    406.77068   -762.88494   -1404.0997     804.9664   -1169.6556            0            0            0            0            0   -570.52229   -25.796514 
    5000    362.44418    508.12474    811.58285    31964.634   -1198.7313    431.07053   -767.66074   -1429.9798    801.64068   -1198.7313            0            0            0            0            0    -570.3922   -26.299786 
   10000    370.24769   -271.18862    783.29325    33119.076    -1154.803    440.35157   -714.45142   -1389.8304    805.14359    -1154.803            0            0            0            0            0   -570.11614   -25.383046 
   15000    341.46701   -278.70845     789.0088    32879.163   -1153.2563    406.12147   -747.13484   -1395.0459    811.86174   -1153.2563            0            0            0            0            0   -570.07217   -25.568262 
   20000    363.29327    169.44649    792.00784    32754.661   -1151.8071    432.08038   -719.72674   -1394.5029    812.76248   -1151.8071            0            0            0            0            0   -570.06671   -25.665447 
   25000    362.01325   -145.80635    822.51625     31539.74   -1237.9093      430.558   -807.35129   -1474.7697    807.33038   -1237.9093            0            0            0            0            0   -570.46993   -26.654089 
   30000     351.0553    914.56509    817.21305    31744.413   -1188.5964    417.52524   -771.07121   -1420.0604    801.93509   -1188.5964            0            0            0            0            0    -570.4711   -26.482236 
   35000    383.42718    199.32005    800.20333    32419.196   -1169.6304    456.02651   -713.60392   -1404.0632    804.86963   -1169.6304            0            0            0            0            0   -570.43687   -25.931026 
   40000    365.09537    360.32727    801.75025    32356.646   -1171.7505     434.2237   -737.52685   -1401.9345    800.66146   -1171.7505            0            0            0            0            0   -570.47753   -25.981155 
   45000    354.33953   -433.55825    788.76777     32889.21   -1182.2188    421.43132   -760.78751   -1408.2774      796.431   -1182.2188            0            0            0            0            0    -570.3724   -25.560451 
   50000    358.34287   -111.65011    798.20525    32500.348   -1174.7662    426.19266   -748.57354   -1404.9147     800.6546   -1174.7662            0            0            0            0            0   -570.50614   -25.866278 
   55000    374.10814    524.51805    802.23126    32337.245   -1175.5724    444.94298   -730.62938   -1406.9953    801.91813   -1175.5724            0            0            0            0            0   -570.49518   -25.996743 
   60000    344.92779   -302.37226    792.80435    32721.754   -1176.3331    410.23752   -766.09553   -1403.2556    797.13068   -1176.3331            0            0            0            0            0   -570.20812   -25.691259 
   65000    356.41714   -304.00942    804.84823      32232.1   -1189.8122    423.90231    -765.9099   -1426.8675    806.96317   -1189.8122            0            0            0            0            0   -569.90788   -26.081547 
   70000    346.77489    -143.3636    791.17863    32788.991   -1165.5285    412.43436    -753.0941   -1398.1097     802.9463   -1165.5285            0            0            0            0            0   -570.36503   -25.638576 
   75000     353.9188    424.56036    799.04478    32466.201   -1176.5736    420.93092   -755.64272   -1404.7859    798.51428   -1176.5736            0            0            0            0            0   -570.30205   -25.893483 
   80000    348.05328   -168.06257    784.49389    33068.388   -1151.7825     413.9548   -737.82773   -1388.9543    807.33229   -1151.7825            0            0            0            0            0   -570.16052   -25.421954 
   85000    368.29853    300.22182    819.33361    31662.254   -1203.1249    438.03335   -765.09155   -1438.8335    806.00912   -1203.1249            0            0            0            0            0   -570.30055   -26.550954 
   90000    385.93728     299.9296    820.70482    31609.353   -1223.4082    459.01188   -764.39636   -1454.8466    801.97392   -1223.4082            0            0            0            0            0   -570.53552   -26.595388 
   95000     335.3838    516.17973    797.48482    32529.708   -1150.4056    398.88644   -751.51917   -1389.9733    809.56046   -1150.4056            0            0            0            0            0   -569.99275   -25.842932 
  100000    347.27302    90.517753    787.01408    32962.496   -1146.6607     413.0268   -733.63388   -1383.8575    807.56788   -1146.6607            0            0            0            0            0   -570.37107   -25.503622 
  105000    360.03904   -77.490819    802.66523    32319.761   -1183.9841    428.20999   -755.77408    -1419.929    806.48968   -1183.9841            0            0            0            0            0    -570.5447   -26.010806 
  110000    343.16131    138.67131    799.54589    32445.853   -1173.3697    408.13657   -765.23311   -1406.6189    803.57248   -1173.3697            0            0            0            0            0   -570.32327   -25.909722 
  115000     354.5361   -150.76256    808.38468    32091.094   -1209.3679     421.6651   -787.70279   -1440.3649    801.44957   -1209.3679            0            0            0            0            0   -570.45252   -26.196148 
  120000    340.93998   -78.223617    789.92166    32841.166   -1151.8113    405.49465   -746.31661   -1396.0058    814.54047   -1151.8113            0            0            0            0            0   -570.34596   -25.597843 
  125000    322.34975     -105.234     806.0428    32184.331   -1190.4962    383.38449   -807.11171   -1425.4302    805.39152   -1190.4962            0            0            0            0            0   -570.45756   -26.120258 
  130000    330.79858    47.142198    815.43927    31813.465   -1215.1268    393.43305    -821.6938   -1446.3966    801.80236   -1215.1268            0            0            0            0            0   -570.53257   -26.424756 
  135000    341.05403  -0.90895835    807.65312    32120.162   -1190.7853    405.63029   -785.15496   -1431.7561    811.23303   -1190.7853            0            0            0            0            0   -570.26216   -26.172441 
  140000    355.23398   -262.71179    806.54116    32164.445   -1205.5217    422.49512   -783.02658   -1440.3885     805.3272   -1205.5217            0            0            0            0            0   -570.46037   -26.136407 
  145000    353.66964    76.443795    814.72092    31841.515    -1220.971    420.63459   -800.33639    -1458.936    808.37145    -1220.971            0            0            0            0            0    -570.4064   -26.401477 
  150000    339.15374    52.707495     786.7116     32975.17   -1145.0559     403.3702   -741.68573   -1384.7897     809.7047   -1145.0559            0            0            0            0            0    -569.9709    -25.49382 
  155000    346.90322    19.022689    790.05561    32835.598   -1162.1814    412.58699   -749.59437   -1401.9975    809.94681   -1162.1814            0            0            0            0            0   -570.13068   -25.602184 
  160000    338.45212    -125.4562    796.00273    32590.276   -1183.3615    402.53573   -780.82582    -1421.462    808.17298   -1183.3615            0            0            0            0            0   -570.07249   -25.794904 
  165000    383.44565    9.9819262    798.56069    32485.882   -1178.2023    456.04848   -722.15387   -1415.2705    807.43621   -1178.2023            0            0            0            0            0   -570.36807   -25.877796 
  170000    339.16373    909.27027    808.15308     32100.29   -1162.6901    403.38208   -759.30797    -1397.417    805.06929   -1162.6901            0            0            0            0            0   -570.34232   -26.188643 
  175000    347.90652    -389.1188    800.15799    32421.033   -1186.8121    413.78025   -773.03185   -1431.3716    814.89539   -1186.8121            0            0            0            0            0   -570.33588   -25.929557 
  180000    343.05874    151.33735    815.10225    31826.619   -1208.6935    408.01458   -800.67891    -1446.557    808.21612   -1208.6935            0            0            0            0            0   -570.35257   -26.413834 
  185000    365.13401   -121.75631    788.66485    32893.502   -1156.0808    434.26966   -721.81113   -1389.3768    803.52214   -1156.0808            0            0            0            0            0   -570.22612   -25.557116 
  190000    345.50591   -322.56437    796.31026     32577.69   -1170.0809    410.92511   -759.15575   -1410.7276    811.17388   -1170.0809            0            0            0            0            0   -570.52715    -25.80487 
  195000    344.61631    46.662843    816.53444    31770.795   -1220.0699    409.86707   -810.20282   -1448.8287    799.37299   -1220.0699            0            0            0            0            0   -570.61414   -26.460245 
  200000    345.16332    646.53349    819.17383    31668.429   -1208.1536    410.51765   -797.63592   -1440.3985     802.7372   -1208.1536            0            0            0            0            0   -570.49222   -26.545776 
  205000    355.14386   -143.95252    801.79952    32354.657   -1187.5031    422.38794   -765.11515   -1421.8701    804.84106   -1187.5031            0            0            0            0            0   -570.47401   -25.982752 
  210000    332.59511    -23.42108    790.12743    32832.613   -1155.4953    395.56973   -759.92559   -1387.2686    801.89407   -1155.4953            0            0            0            0            0   -570.12081   -25.604512 
  215000     350.7285    398.65755    830.53445    31235.247   -1246.9615    417.13656   -829.82491    -1471.433      794.527   -1246.9615            0            0            0            0            0   -570.05543   -26.913923 
  220000    368.33831    7.2087148    797.34615    32535.366   -1186.7807    438.08067   -748.70001   -1412.9472     796.5696   -1186.7807            0            0            0            0            0   -570.40307   -25.838438 
  225000    363.29963    138.54788     790.1303    32832.494   -1147.4212    432.08795   -715.33322   -1391.9534    814.90821   -1147.4212            0            0            0            0            0   -570.37599   -25.604604 
  230000    357.79497   -55.052881    795.19233    32623.489    -1165.781    425.54102   -740.23994   -1396.4499    801.21805    -1165.781            0            0            0            0            0   -570.54912   -25.768642 
  235000    372.99846    89.730733    808.91789     32069.94   -1185.3314    443.62318    -741.7082   -1426.8184    811.76992   -1185.3314            0            0            0            0            0   -570.28286   -26.213427 
  240000    356.06374    14.925699    805.56631    32203.368    -1186.565    423.48199   -763.08301   -1419.5606    803.50339    -1186.565            0            0            0            0            0   -570.50781   -26.104817 
  245000    369.13519    199.65725    793.34329    32699.525   -1154.2371    439.02843   -715.20863   -1385.1856    801.41398   -1154.2371            0            0            0            0            0   -570.46546   -25.708723 
  250000     338.8823   -256.09126    800.05436    32425.232   -1199.8877    403.04737   -796.84034   -1438.2133    808.56622   -1199.8877            0            0            0            0            0    -570.2406   -25.926199 
  255000    344.72873    143.57645    808.86349    32072.097   -1191.7859    410.00077   -781.78515   -1425.9655    804.70141   -1191.7859            0            0            0            0            0   -570.52183   -26.211664 
  260000    352.16643   -53.265155    767.70352    33791.624    -1107.725    418.84675   -688.87826   -1341.9794    804.45543    -1107.725            0            0            0            0            0   -570.20107   -24.877852 
  265000    332.27595    84.303738    811.00851     31987.27   -1198.4996    395.19015   -803.30946   -1425.0347    797.07747   -1198.4996            0            0            0            0            0    -570.5424   -26.281174 
  270000    358.97698    119.96855    815.99009     31791.99   -1207.5057    426.94684   -780.55882   -1442.8799    805.73745   -1207.5057            0            0            0            0            0   -570.36325   -26.442605 
  275000    331.26588    11.878826    807.16038     32139.77   -1198.0745    393.98882   -804.08571   -1436.2367     808.5317   -1198.0745            0            0            0            0            0   -570.36949   -26.156474 
  280000    360.10478    11.819135    812.60562    31924.402   -1210.4289    428.28817    -782.1407    -1443.102    802.83474   -1210.4289            0            0            0            0            0    -570.1616   -26.332929 
  285000     342.8162   -46.089428    810.29173    32015.566   -1202.5146    407.72612   -794.78846   -1429.3833    797.25652   -1202.5146            0            0            0            0            0   -570.38785   -26.257947 
  290000    357.24122     133.0045    801.29348     32375.09   -1171.8174    424.88242   -746.93496   -1414.4042    812.92422   -1171.8174            0            0            0            0            0    -570.3374   -25.966354 
  295000    362.84933    404.98206    792.12586    32749.781   -1150.9359    431.55239   -719.38347   -1384.9151    804.21974   -1150.9359            0            0            0            0            0   -570.24047   -25.669272 
  300000    331.93783    101.20528    800.46499    32408.599   -1179.5358      394.788   -784.74775   -1412.1712    803.08868   -1179.5358            0            0            0            0            0   -570.45326   -25.939506 
  305000    344.04403    202.70079    794.63176    32646.504   -1151.3084    409.18643   -742.12193   -1385.4292    804.41119   -1151.3084            0            0            0            0            0   -570.29031   -25.750477 
  310000    360.65203    213.88924    819.63688    31650.538   -1219.5978    428.93905   -790.65875   -1455.7921    806.61748   -1219.5978            0            0            0            0            0   -570.42316   -26.560781 
  315000    359.80249    77.766971    809.66138    32040.491    -1207.092    427.92864   -779.16336   -1439.6361    802.79304    -1207.092            0            0            0            0            0   -570.24895    -26.23752 
  320000    362.03277    -85.90972    804.87883    32230.875   -1185.5836    430.58121   -755.00236   -1428.0204    813.02351   -1185.5836            0            0            0            0            0   -570.58665   -26.082539 
  325000    341.79743   -336.97021    777.14172    33381.233   -1138.7884    406.51445   -732.27394   -1376.2639    807.66841   -1138.7884            0            0            0            0            0   -570.19285   -25.183702 
  330000    336.40275    285.68034    806.89269    32150.432   -1169.6043    400.09832   -769.50596   -1411.6008    812.17536   -1169.6043            0            0            0            0            0   -570.17885   -26.147799 
  335000    343.40984   -269.84854    787.67726    32934.743   -1152.8106    408.43217   -744.37846   -1391.4226     808.9102   -1152.8106            0            0            0            0            0   -570.29821   -25.525113 
  340000    362.77741   -424.79302    787.16705    32956.091   -1176.0483    431.46685   -744.58147   -1406.9047    801.25507   -1176.0483            0            0            0            0            0   -570.39865   -25.508579 
  345000    350.02289    80.172384      804.011    32265.664   -1183.8162    416.29735   -767.51881   -1424.1054    810.48297   -1183.8162            0            0            0            0            0   -570.19371   -26.054416 
  350000    354.22725   -406.81884    783.20114    33122.971   -1156.5804    421.29777   -735.28266   -1387.6047     801.3779   -1156.5804            0            0            0            0            0   -570.35368   -25.380061 
  355000    353.33175    25.162257     813.3054    31896.934    -1214.816    420.23272   -794.58327    -1442.361    798.07941    -1214.816            0            0            0            0            0    -570.5344   -26.355606 
  360000    378.32265    216.03013    811.90251    31952.049   -1197.0378    449.95547   -747.08233   -1426.0172    799.12858   -1197.0378            0            0            0            0            0   -570.14919   -26.310145 
  365000    345.59883    406.08706    817.55585    31731.103   -1210.0403    411.03563   -799.00472   -1442.5934     802.9307   -1210.0403            0            0            0            0            0   -570.37769   -26.493344 
  370000    367.16169    421.26464    818.05574    31711.713    -1207.443    436.68127   -770.76178   -1439.6013    802.80253    -1207.443            0            0            0            0            0   -570.64427   -26.509544 
  375000    333.86078   -297.19819    806.56058     32163.67   -1206.1614    397.07506   -809.08637   -1440.1123    804.23739   -1206.1614            0            0            0            0            0   -570.28648   -26.137037 
  380000    385.29658    -451.7786    790.71607    32808.172   -1171.2692    458.24987    -713.0193   -1403.9728    802.94381   -1171.2692            0            0            0            0            0   -570.24021   -25.623587 
  385000    373.80562    96.741611    788.47067    32901.603   -1144.0335    444.58317   -699.45036   -1381.8897    808.15058   -1144.0335            0            0            0            0            0   -570.29437   -25.550823 
  390000    341.02232     198.8216    790.25385    32827.361   -1153.5193    405.59258   -747.92673     -1385.75    802.47199   -1153.5193            0            0            0            0            0   -570.24126   -25.608608 
  395000    357.64982   -189.05792     823.8932    31487.028   -1252.6149    425.36839   -827.24647   -1490.1929    807.61428   -1252.6149            0            0            0            0            0    -570.0362    -26.69871 
  400000    347.83106    282.38825    770.57938    33665.511   -1102.1795    413.69051   -688.48903   -1333.3788    801.67469   -1102.1795            0            0            0            0            0   -570.47544   -24.971046 
  405000      348.793   -349.50187    785.23886    33037.016   -1161.5951    414.83458   -746.76049   -1403.8568    812.55893   -1161.5951            0            0            0            0            0   -570.29718   -25.446095 
  410000    383.42674   -90.682439    795.29601    32619.236   -1172.2599    456.02599   -716.23393   -1406.6659    804.69498   -1172.2599            0            0            0            0            0   -570.28904   -25.772002 
  415000    351.38313    164.57134    793.73166    32683.525   -1153.7285    417.91514   -735.81335   -1393.5141    810.21743   -1153.7285            0            0            0            0            0   -570.43178   -25.721309 
  420000    344.68621   -474.89433    781.52378    33194.062   -1166.0493     409.9502   -756.09908   -1402.9712     807.1933   -1166.0493            0            0            0            0            0   -570.27138   -25.325705 
  425000    372.13799     191.3366    821.55801    31576.527   -1227.1211    442.59979   -784.52132   -1460.6112    804.18388   -1227.1211            0            0            0            0            0   -570.69383   -26.623037 
  430000     323.3546    222.69485     793.3656    32698.605   -1150.1947    384.57959   -765.61506   -1390.6506    810.98977   -1150.1947            0            0            0            0            0   -570.53384   -25.709446 
  435000    340.80681    695.80935    809.62199     32042.05    -1185.697    405.33627   -780.36075   -1418.4509    802.95719    -1185.697            0            0            0            0            0   -570.20329   -26.236243 
  440000    354.25126  -0.56721534    808.27124    32095.598   -1200.9124    421.32633   -779.58609   -1430.4217    799.91253   -1200.9124            0            0            0            0            0   -570.40324   -26.192472 
  445000     348.6945    475.88472    803.48982    32286.593   -1161.2357    414.71744   -746.51821   -1397.7197    806.71747   -1161.2357            0            0            0            0            0   -570.23347   -26.037527 
  450000    384.71069    445.79871    817.92112    31716.932   -1211.7878    457.55305   -754.23476   -1440.4654    798.90053   -1211.7878            0            0            0            0            0   -570.22292   -26.505181 
  455000    356.41247   -482.70708    793.80152    32680.649   -1186.0376    423.89675   -762.14089   -1417.7558    802.20229   -1186.0376            0            0            0            0            0   -570.48415   -25.723572 
  460000    363.56044    197.56598    795.68836    32603.152   -1158.3945    432.39814   -725.99637     -1392.95    804.89591   -1158.3945            0            0            0            0            0   -570.34039   -25.784717 
  465000     359.1085   -246.83242    811.65045    31961.972   -1222.9753    427.10326   -795.87201   -1453.6411    801.01518   -1222.9753            0            0            0            0            0   -570.34933   -26.301977 
  470000     345.2911    16.062637    805.07916    32222.855   -1201.4882    410.66962    -790.8186   -1435.0294    803.88295   -1201.4882            0            0            0            0            0   -570.34176    -26.08903 
  475000    343.92871   -272.68135    804.29317    32254.344   -1195.1532    409.04927    -786.1039   -1429.7892    805.18899   -1195.1532            0            0            0            0            0   -570.55297    -26.06356 
  480000    364.59688    370.53745    817.15455    31746.686   -1203.6559    433.63082   -770.02511   -1439.3044    806.20994   -1203.6559            0            0            0            0            0   -570.56149    -26.48034 
  485000    349.89766    352.97866    812.03184     31946.96    -1187.921    416.14841   -771.77256   -1427.3821    809.85881    -1187.921            0            0            0            0            0   -570.39773   -26.314336 
  490000    349.81964    -88.77519    791.92213    32758.206   -1167.6326    416.05561   -751.57702   -1405.7106    808.53183   -1167.6326            0            0            0            0            0   -570.45387    -25.66267 
  495000    347.52259     158.5641     804.6489    32240.085   -1196.5631    413.32363    -783.2395   -1429.7443    803.24771   -1196.5631            0            0            0            0            0   -570.06654   -26.075088 
  500000    337.24302    430.46231    831.35317    31204.486   -1236.0906     401.0977   -834.99289   -1467.5302    801.77608   -1236.0906            0            0            0            0            0   -570.33651   -26.940454 
  505000    346.86428   -538.35062    793.73343    32683.452   -1177.7863    412.54068   -765.24565   -1411.4065    803.95111   -1177.7863            0            0            0            0            0   -570.33092   -25.721366 
  510000    345.84018    33.541531    793.93894    32674.992   -1158.8386    411.32267   -747.51595   -1399.9083    811.44535   -1158.8386            0            0            0            0            0   -570.37567   -25.728025 
  515000    361.45404   -398.67496    789.75762    32847.988   -1167.9469     429.8929   -738.05401   -1405.2077    807.43411   -1167.9469            0            0            0            0            0   -570.17335   -25.592528 
  520000    366.49283   -89.653785    802.43613    32328.989   -1199.0491    435.88576   -763.16334   -1420.0272    791.37879   -1199.0491            0            0            0            0            0    -570.4007   -26.003382 
  525000    328.64196    41.846745    794.14933    32666.336   -1157.4053    390.86809   -766.53722   -1392.5866    805.44103   -1157.4053            0            0            0            0            0    -570.2597   -25.734843 
  530000    387.02194   -13.851065    777.43364    33368.698    -1136.291    460.30192   -675.98906   -1375.3598    809.23369    -1136.291            0            0            0            0            0   -570.16483   -25.193162 
  535000    353.04823    165.08687    827.84764    31336.622   -1246.6408    419.89551   -826.74528   -1477.0105    800.76521   -1246.6408            0            0            0            0            0   -570.39546   -26.826856 
  540000    354.23351    492.35611    793.11556    32708.914   -1153.4179    421.30521    -732.1127   -1390.2512    807.19924   -1153.4179            0            0            0            0            0   -570.36592   -25.701344 
  545000    341.50033    144.38844    807.91122      32109.9   -1194.1282     406.1611   -787.96714   -1435.0603    811.09573   -1194.1282            0            0            0            0            0   -570.16369   -26.180805 
  550000    337.79083   -237.50882    805.09572    32222.192   -1194.7757    401.74923   -793.02651     -1433.18    808.72452   -1194.7757            0            0            0            0            0   -570.32029   -26.089567 
  555000    323.19512     421.7055    816.24599    31782.023   -1192.8376    384.38992   -808.44766   -1431.1319    808.72093   -1192.8376            0            0            0            0            0    -570.4266   -26.450898 
  560000    383.34332   -115.73759    795.63347    32605.401   -1175.6343    455.92677   -719.70754   -1408.9498    803.37427   -1175.6343            0            0            0            0            0   -570.05883   -25.782938 
  565000    364.89585   -288.19799    792.60163    32730.123   -1173.8638     433.9864   -739.87738    -1406.455    802.90215   -1173.8638            0            0            0            0            0    -570.3109   -25.684689 
  570000    366.02991    146.21944    786.34926    32990.364   -1134.7336    435.33519    -699.3984   -1370.6302    806.17778   -1134.7336            0            0            0            0            0   -570.28114   -25.482078 
  575000    357.41806   -72.680926     799.5588    32445.329   -1192.4713    425.09274   -767.37856   -1418.5333    796.21035   -1192.4713            0            0            0            0            0   -570.14833    -25.91014 
  580000    361.51263    80.911207    805.02139    32225.167   -1194.8433    429.96259   -764.88067   -1429.4081    804.88424   -1194.8433            0            0            0            0            0   -570.31936   -26.087158 
  585000    343.03438   -51.108434    812.47358    31929.591   -1212.4555    407.98561   -804.46985   -1451.5072     809.2452   -1212.4555            0            0            0            0            0   -570.19344   -26.328651 
  590000    343.41317    400.30057    820.08347    31633.303   -1213.1098    408.43612   -804.67372   -1444.8678     802.1274   -1213.1098            0            0            0            0            0   -570.36945   -26.575253 
  595000    354.24613    119.04774    811.47511    31968.878   -1213.6739    421.32023   -792.35363   -1443.2979    800.11327   -1213.6739            0            0            0            0            0   -570.48919   -26.296295 
  600000     360.6814    141.96456    803.53282    32284.865   -1176.0094    428.97397   -747.03544   -1409.7138    803.82728   -1176.0094            0            0            0            0            0   -570.12287    -26.03892 
  605000    353.49704   -91.737451    792.35888     32740.15   -1167.5463     420.4293   -747.11703   -1404.2687    806.99446   -1167.5463            0            0            0            0            0   -570.27213   -25.676823 
  610000    327.94984    22.308575    813.15134    31902.977    -1205.388    390.04491   -815.34312   -1446.8519    811.87139    -1205.388            0            0            0            0            0   -570.40754   -26.350614 
  615000    345.71113      146.194    798.02859    32507.543   -1178.3615    411.16919   -767.19233    -1406.327    798.48226   -1178.3615            0            0            0            0            0   -570.51675   -25.860553 
  620000    334.32787    63.266075    805.48726    32206.529   -1197.1223    397.63058   -799.49169   -1426.6758    799.94553   -1197.1223            0            0            0            0            0   -570.39203   -26.102255 
  625000    350.09981   -268.87304    796.72766    32560.623    -1172.606    416.38883   -756.21713   -1409.3683    807.04886    -1172.606            0            0            0            0            0   -570.28649   -25.818396 
  630000    350.73061   -337.16042    798.38173    32493.164   -1185.8321    417.13907   -768.69308    -1425.751    810.10521   -1185.8321            0            0            0            0            0    -570.1864   -25.871997 
  635000    366.23728    327.83667    808.04962    32104.401   -1193.8182    435.58182   -758.23636    -1424.629    801.28808   -1193.8182            0            0            0            0            0   -570.47727    -26.18529 
  640000    366.88716    699.92348    808.95349    32068.529   -1177.5485    436.35475    -741.1937   -1415.2452    808.00997   -1177.5485            0            0            0            0            0   -570.31327    -26.21458 
  645000    341.47605   -610.69188     791.2562    32785.776   -1192.0181    406.13222   -785.88584   -1420.3399    798.72328   -1192.0181            0            0            0            0            0   -570.40148    -25.64109 
  650000    359.72765    383.26571    802.31211    32333.986   -1179.9059    427.83964   -752.06627   -1414.2474    804.63392   -1179.9059            0            0            0            0            0   -570.29247   -25.999363 
  655000    318.49803   -276.92467    806.72009    32157.311   -1210.6561    378.80347   -831.85261   -1441.1364    801.01261   -1210.6561            0            0            0            0            0   -570.53233   -26.142206 
  660000    351.75921   -108.27783    798.44255    32490.689   -1175.0828    418.36243    -756.7204   -1414.8353    810.26177   -1175.0828            0            0            0            0            0   -570.50927   -25.873967 
  665000    382.81076   -171.63594    782.90016    33135.705   -1133.5572    455.29337   -678.26382     -1378.05    814.91661   -1133.5572            0            0            0            0            0   -570.42385   -25.370308 
  670000    336.75144   -312.73227    788.52757    32899.228   -1166.8945    400.51303   -766.38147   -1408.0076     811.5474   -1166.8945            0            0            0            0            0   -570.43434   -25.552667 
  675000    367.49373   -96.721811    794.98378    32632.048   -1173.8754    437.07618   -736.79921    -1402.648    799.18662   -1173.8754            0            0            0            0            0   -570.41403   -25.761884 
  680000    361.29505    284.30678    827.37332    31354.587   -1230.0756    429.70381   -800.37183   -1462.6313    803.05426   -1230.0756            0            0            0            0            0   -570.49857   -26.811485 
  685000    348.31468   -55.410937    801.88961    32351.022   -1196.3273     414.2657   -782.06162   -1426.2587    800.27765   -1196.3273            0            0            0            0            0   -570.34628   -25.985671 
  690000    375.16709   -284.24714     787.3566    32948.157    -1166.035    446.20243    -719.8326   -1401.2323    805.68928    -1166.035            0            0            0            0            0   -570.49204   -25.514721 
  695000    333.45084    290.23144    795.31993    32618.255   -1164.7742    396.58749   -768.18669   -1393.0504     798.6982   -1164.7742            0            0            0            0            0   -570.42194   -25.772777 
  700000    352.58766   -500.10011     797.0358    32548.035   -1185.7131    419.34774    -766.3654   -1424.0324    808.59755   -1185.7131            0            0            0            0            0   -570.27831   -25.828381 
  705000    336.99855    60.152678    805.03712    32224.537   -1196.6439    400.80693   -795.83692   -1434.4885    808.01094   -1196.6439            0            0            0            0            0   -570.16626   -26.087668 
  710000    361.45608    315.02088    814.48563    31850.714   -1189.2576    429.89533   -759.36226   -1427.8202    809.09652   -1189.2576            0            0            0            0            0    -570.5339   -26.393852 
  715000    323.94352   -222.02517    802.89758    32310.408   -1189.9176    385.28002    -804.6376   -1426.3383    806.53186   -1189.9176            0            0            0            0            0   -570.11121   -26.018335 
  720000    337.08822    -388.0683    798.00986    32508.306   -1183.0695    400.91358   -782.15595   -1421.7755    809.38326   -1183.0695            0            0            0            0            0   -570.67725   -25.859946 
  725000    353.28282   -106.55012    812.24538    31938.561   -1208.3075    420.17452   -788.13296   -1441.0088     802.9864   -1208.3075            0            0            0            0            0    -570.2851   -26.321256 
  730000    357.23082    437.18772    796.11519    32585.672   -1155.3637    424.87005   -730.49361   -1389.3507    804.52392   -1155.3637            0            0            0            0            0   -570.53683   -25.798548 
  735000    345.64548   -140.17984    797.34548    32535.393   -1187.0813     411.0911   -775.99017   -1416.2447    799.51906   -1187.0813            0            0            0            0            0   -570.35562   -25.838416 
  740000    362.09954   -93.465876    796.53247    32568.602   -1158.6737    430.66063   -728.01308   -1395.8902     807.6574   -1158.6737            0            0            0            0            0   -570.44089    -25.81207 
  745000    347.19326   -336.63636    777.32614    33373.313   -1130.7117    412.93195   -717.77975   -1370.6079    810.35787   -1130.7117            0            0            0            0            0   -570.46164   -25.189679 
  750000    376.31722    144.89937    790.37464    32822.344    -1149.985    447.57034   -702.41465   -1386.2255    806.46284    -1149.985            0            0            0            0            0   -570.22231   -25.612523 
  755000    336.61749    245.65538    805.23017    32216.812    -1183.021    400.35373    -782.6673    -1418.029    805.47781    -1183.021            0            0            0            0            0   -570.46981   -26.093924 
  760000    357.96506   -131.36641    799.32597     32454.78   -1188.8554    425.74332   -763.11206   -1432.3858    813.55343   -1188.8554            0            0            0            0            0   -570.02306   -25.902595 
  765000     345.1937   -126.13496    805.35373    32211.869   -1190.7126    410.55379    -780.1588   -1425.0228    804.72476   -1190.7126            0            0            0            0            0   -570.41457   -26.097928 
  770000    368.20454   -25.502795    799.15944    32461.543   -1175.7998    437.92156   -737.87821   -1408.6982    803.15795   -1175.7998            0            0            0            0            0    -570.2595   -25.897199 
  775000    367.06614    668.14364    797.77412    32517.912   -1161.0356    436.56763   -724.46798   -1393.9745    803.26906   -1161.0356            0            0            0            0            0   -570.33014   -25.852307 
  780000    346.07865    274.84405    808.63973    32080.972   -1190.5295    411.60629   -778.92322   -1421.5301    801.25651   -1190.5295            0            0            0            0            0   -570.25591   -26.204413 
  785000    331.80666    152.96612    786.39815    32988.313   -1134.3429      394.632   -739.71088   -1375.3916    811.34056   -1134.3429            0            0            0            0            0   -570.29186   -25.483662 
  790000    327.29835   -196.33588    789.50936    32858.317   -1149.6089    389.27007   -760.33882   -1393.1181     813.7329   -1149.6089            0            0            0            0            0   -570.22366   -25.584483 
  795000    343.14962    418.30672    801.98369    32347.227   -1168.9651    408.12267   -760.84246   -1407.5833    808.98532   -1168.9651            0            0            0            0            0   -570.36711    -25.98872 
  800000    373.05384    329.38176    803.45124    32288.143   -1165.8109    443.68906   -722.12181   -1405.8973    810.47361   -1165.8109            0            0            0            0            0   -570.38719   -26.036277 
  805000    328.15689   -401.89903    814.09888    31865.845   -1229.3854    390.29117   -839.09419   -1460.0842    801.10143   -1229.3854            0            0            0            0            0   -570.40257    -26.38132 
  810000    350.87813   -7.1955887    799.97494    32428.452   -1177.0148    417.31453   -759.70023   -1412.2394    805.50549   -1177.0148            0            0            0            0            0    -570.2808   -25.923625 
  815000    344.79278    22.297342    797.22499     32540.31   -1163.4918    410.07695   -753.41481    -1399.705    806.49274   -1163.4918            0            0            0            0            0    -570.2795   -25.834512 
  820000    339.92652   -262.00336    789.44304    32861.077   -1148.0465     404.2893   -743.75719   -1391.3057    813.73788   -1148.0465            0            0            0            0            0   -570.47862   -25.582333 
  825000    347.40293   -91.333848    797.60692    32524.729    -1179.665    413.18132   -766.48371   -1413.6059    804.23181    -1179.665            0            0            0            0            0   -570.29098   -25.846888 
  830000    356.15334    475.95398     787.8247     32928.58    -1134.622    423.58855   -711.03343   -1371.4371    807.15908    -1134.622            0            0            0            0            0   -570.34398    -25.52989 
  835000    346.77394   -314.72552      798.553    32486.195   -1186.1118    412.43323   -773.67859    -1423.575    807.73679   -1186.1118            0            0            0            0            0   -570.27362   -25.877547 
  840000    376.55162    563.97256    816.19643    31783.953   -1198.1641    447.84912   -750.31498   -1436.2972    808.55396   -1198.1641            0            0            0            0            0   -570.42084   -26.449292 
  845000    365.23441   -229.47501    795.57494      32607.8   -1168.9734    434.38907   -734.58438   -1402.7519    804.18376   -1168.9734            0            0            0            0            0   -570.40527   -25.781041 
  850000    366.14846    52.156169    798.12384    32503.663   -1165.3742    435.47619     -729.898   -1408.9087    813.94812   -1165.3742            0            0            0            0            0   -570.41358    -25.86364 
  855000    343.41888    369.06874    797.10362    32545.265    -1162.504    408.44291    -754.0611   -1406.3981    814.10737    -1162.504            0            0            0            0            0   -570.21333   -25.830579 
  860000     353.4651   -571.63984    782.51685    33151.936   -1146.1657    420.39131   -725.77443   -1384.4962     808.3576   -1146.1657            0            0            0            0            0    -570.0271   -25.357886 
  865000    357.08842    299.51671    797.00105    32549.454   -1144.8833    424.70069   -720.18258   -1388.7846    814.19139   -1144.8833            0            0            0            0            0   -570.29001   -25.827255 
  870000    363.93833   -212.81346    803.56902    32283.411    -1197.083    432.84758   -764.23539   -1433.2207     806.7378    -1197.083            0            0            0            0            0   -570.60012   -26.040094 
  875000    353.40999   -105.00758     793.8084    32680.365   -1180.1543    420.32578   -759.82849    -1408.968    798.93114   -1180.1543            0            0            0            0            0   -570.11736   -25.723795 
  880000    340.19867   -248.46924    796.49698    32570.053   -1178.6957    404.61297    -774.0827   -1414.9828    806.50586   -1178.6957            0            0            0            0            0   -570.21878    -25.81092 
  885000    348.77869    166.90651    800.62205    32402.241     -1174.97    414.81757   -760.15248   -1410.7747    805.98715     -1174.97            0            0            0            0            0   -570.18252   -25.944596 
  890000    377.51834   -136.06053    808.05666    32104.121   -1199.6472    448.99888   -750.64834   -1435.4203    806.25029   -1199.6472            0            0            0            0            0   -570.47717   -26.185518 
  895000    357.15757    -227.4787    777.84292    33351.141   -1131.7952    424.78293   -707.01228   -1369.2571    807.57597   -1131.7952            0            0            0            0            0   -570.11405   -25.206425 
  900000    349.36066   -249.95583    809.28615    32055.347   -1212.2962    415.50973   -796.78652   -1443.4234    801.59317   -1212.2962            0            0            0            0            0   -570.46599    -26.22536 
  905000    362.02499   -812.23103    790.48958    32817.572   -1198.6272    430.57196   -768.05521   -1432.7715    804.52629   -1198.6272            0            0            0            0            0   -570.38196   -25.616247 
  910000    366.81037    127.96063    800.49872    32407.233   -1181.7781    436.26343   -745.51464    -1416.851    805.53155   -1181.7781            0            0            0            0            0   -570.45864   -25.940599 
  915000    329.81099   -13.223518    799.35789    32453.484   -1163.4311    392.25846   -771.17265   -1405.2801    812.15251   -1163.4311            0            0            0            0            0    -570.3035    -25.90363 
  920000     343.7485   -230.63913    795.75615    32600.375   -1187.8187    408.83494   -778.98372   -1417.7268    800.23691   -1187.8187            0            0            0            0            0   -570.32878   -25.786913 
  925000    360.45892    212.00706    810.81783    31994.793   -1198.9813    428.70937   -770.27192    -1432.273    803.53397   -1198.9813            0            0            0            0            0   -570.24223   -26.274995 
  930000    352.82484   -31.712691    798.34353    32494.719   -1180.5718    419.62983   -760.94201   -1412.6627    802.22879   -1180.5718            0            0            0            0            0   -570.13794   -25.870759 
  935000    355.05328    391.97887    816.67077    31765.492   -1208.4995    422.28021   -786.21931   -1440.5545    802.26148   -1208.4995            0            0            0            0            0   -570.20652   -26.464663 
  940000    346.96767    147.85993    799.98406    32428.082      -1182.1    412.66365   -769.43632   -1418.5497    806.48636      -1182.1            0            0            0            0            0   -570.03668   -25.923921 
  945000    331.51412    127.10368    800.34678    32413.385   -1170.3409    394.28407   -776.05683   -1408.5802    808.82724   -1170.3409            0            0            0            0            0   -570.58792   -25.935675 
  950000    342.42797     7.768257    812.30735    31936.125   -1194.9088    407.26438   -787.64445   -1430.8233    806.39254   -1194.9088            0            0            0            0            0   -570.47808   -26.323264 
  955000    346.10732   -137.89101    800.07211    32424.513    -1182.254    411.64039   -770.61361    -1414.859     803.0912    -1182.254            0            0            0            0            0    -570.4862   -25.926774 
  960000     328.8039    38.569764    798.57931    32485.125   -1175.6814    391.06069   -784.62072   -1399.1881    794.12316   -1175.6814            0            0            0            0            0    -570.6165   -25.878399 
  965000    347.53543   -149.94812    794.22599    32663.183   -1169.8516     413.3389   -756.51271   -1403.8879    804.33258   -1169.8516            0            0            0            0            0   -570.29628   -25.737327 
  970000    373.44237    347.83931    803.36331    32291.677   -1168.7748    444.15115   -724.62366   -1411.8422    813.20782   -1168.7748            0            0            0            0            0   -570.14045   -26.033427 
  975000    374.61551    200.78688    809.17694    32059.674   -1191.5518    445.54641   -746.00535   -1424.3116    802.98733   -1191.5518            0            0            0            0            0   -570.22745   -26.221821 
  980000    340.67398   -140.56155    794.83344     32638.22   -1170.4416    405.17829   -765.26333   -1404.2087    804.03277   -1170.4416            0            0            0            0            0   -570.26565   -25.757012 
  985000    350.46456    846.45811    810.89047    31991.927   -1173.2913    416.82264   -756.46866   -1407.4569    804.47148   -1173.2913            0            0            0            0            0   -570.30589   -26.277349 
  990000    336.20026    134.70352    809.15268    32060.635    -1186.919    399.85749   -787.06153   -1419.8221    803.34518    -1186.919            0            0            0            0            0   -570.44211   -26.221035 
  995000    354.81593    84.141769    807.46811    32127.521   -1194.5758    421.99791    -772.5779   -1432.9869    808.43017   -1194.5758            0            0            0            0            0   -570.01906   -26.166446 
 1000000      365.207   -348.87523    789.08879     32875.83   -1159.5479    434.35646   -725.19147   -1392.1642    803.00657   -1159.5479            0            0            0            0            0   -570.39031   -25.570854 
 1005000    364.99733    72.849174     787.6253    32936.916   -1153.4921     434.1071   -719.38502   -1392.7593    809.73999   -1153.4921            0            0            0            0            0   -570.47282   -25.523429 
 1010000     332.2457   -11.660395    807.11694    32141.499   -1196.4606    395.15417   -801.30642   -1425.9594    799.97399   -1196.4606            0            0            0            0            0   -570.47518   -26.155066 
 1015000    373.05741   -32.006257     799.0326    32466.696   -1182.8546    443.69329   -739.16126   -1420.6483    807.71747   -1182.8546            0            0            0            0            0   -569.92376   -25.893089 
 1020000    363.13416     274.4853    809.66992    32040.154   -1196.8384    431.89115   -764.94728   -1431.6741    804.99944   -1196.8384            0            0            0            0            0   -570.16376   -26.237797 
 1025000    357.05912    318.96702     784.9325     33049.91    -1146.665    424.66584   -721.99918   -1371.5958    795.37003    -1146.665            0            0            0            0            0   -570.43929   -25.436167 
 1030000    343.80778    424.77039    819.96454    31637.891   -1218.1681    408.90545   -809.26264   -1452.0509    804.20343   -1218.1681            0            0            0            0            0   -570.32063     -26.5714 
 1035000    355.86045    115.96973     802.1212    32341.682   -1183.6832    423.24021   -760.44297   -1410.7155    797.56454   -1183.6832            0            0            0            0            0   -570.53222   -25.993176 
 1040000    343.76141    436.39552    818.52644    31693.477   -1221.2017     408.8503    -812.3514   -1445.4157    794.49189   -1221.2017            0            0            0            0            0   -570.27791   -26.524797 
 1045000    351.02291    14.133669    799.48403    32448.364   -1178.1042    417.48672   -760.61745    -1414.755    807.02508   -1178.1042            0            0            0            0            0   -570.37427   -25.907717 
 1050000    334.40729    110.34577    800.68863    32399.547   -1172.1251    397.72504    -774.4001   -1412.1299    810.26551   -1172.1251            0            0            0            0            0   -570.26076   -25.946753 
 1055000    338.81778    255.64866    820.22779    31627.737    -1225.044    402.97062   -822.07333   -1458.8701    803.80891    -1225.044            0            0            0            0            0   -569.98279    -26.57993 
 1060000    358.50335    284.55973    809.85334    32032.897   -1192.5133    426.38353   -766.12981   -1422.4008    800.17164   -1192.5133            0            0            0            0            0   -570.28417    -26.24374 
 1065000    344.16993    34.767849    787.81552    32928.964   -1134.6792    409.33616   -725.34308   -1373.7042     809.3471   -1134.6792            0            0            0            0            0   -570.32215   -25.529593 
 1070000    364.72172   -324.34254    794.76863    32640.881   -1202.1148     433.7793   -768.33553   -1429.3459    797.66435   -1202.1148            0            0            0            0            0   -570.43327   -25.754912 
 1075000    344.65838    97.166599    797.80023    32516.848   -1164.5486    409.91711   -754.63152   -1408.5993    814.31887   -1164.5486            0            0            0            0            0    -570.2682   -25.853153 
 1080000    327.17699   -46.278961    778.40385    33327.107   -1126.4744    389.12573    -737.3487   -1365.2569    809.12638   -1126.4744            0            0            0            0            0   -570.34389   -25.224602 
 1085000    342.88208   -32.445536    789.48824    32859.196   -1170.3862    407.80448   -762.58176   -1401.7509    801.88934   -1170.3862            0            0            0            0            0   -570.52464   -25.583798 
 1090000    356.61505   -362.23287    769.05497    33732.242   -1123.8456    424.13769   -699.70786   -1363.9485    810.23998   -1123.8456            0            0            0            0            0   -570.13706   -24.921647 
 1095000    344.47204   -233.68902    800.22228    32418.428   -1180.1604    409.69549    -770.4649   -1424.9144    814.74927   -1180.1604            0            0            0            0            0   -569.99524   -25.931641 
 1100000    347.32023    360.15836    793.32405    32700.318    -1146.458    413.08295   -733.37505   -1385.1365    809.07779    -1146.458            0            0            0            0            0   -570.39932     -25.7081 
 1105000    362.26348   -23.657848    783.44359    33112.721   -1147.2038    430.85562   -716.34821   -1376.9387    800.07295   -1147.2038            0            0            0            0            0   -570.33803   -25.387918 
 1110000    351.81186   -46.049629    804.06864    32263.351   -1188.9959    418.42505   -770.57087   -1420.3416       801.89   -1188.9959            0            0            0            0            0   -570.54434   -26.056284 
 1115000    350.77379   -436.63599    803.59911    32282.202   -1210.3646    417.19043   -793.17421   -1436.3956     796.5887   -1210.3646            0            0            0            0            0   -570.55778   -26.041068 
 1120000    351.56574    61.341064    808.29942    32094.479    -1192.324    418.13232    -774.1917   -1429.3786    807.44274    -1192.324            0            0            0            0            0   -570.38812   -26.193385 
 1125000    365.11389   -371.98321    808.05661    32104.123    -1219.994    434.24573   -785.74828   -1454.0067    804.42041    -1219.994            0            0            0            0            0   -570.40776   -26.185516 
 1130000    348.55461    190.86308    782.68986    33144.608   -1122.7184    414.55106   -708.16737   -1359.9128    807.65495   -1122.7184            0            0            0            0            0   -570.46057   -25.363493 
 1135000    340.27992    35.755179    789.58486    32855.175   -1150.8547    404.70961   -746.14508   -1381.6318    801.33758   -1150.8547            0            0            0            0            0   -570.56045   -25.586929 
 1140000    369.79966   -101.63181    815.58185    31807.903   -1219.8544    439.81872   -780.03571   -1452.0214    802.64373   -1219.8544            0            0            0            0            0   -570.47678   -26.429376 
 1145000    354.87976   -105.51244    819.20269    31667.314   -1231.4244    422.07383   -809.35057   -1467.6923    806.85118   -1231.4244            0            0            0            0            0    -570.5833   -26.546711 
 1150000     332.1515    -172.1058    796.24586    32580.325   -1189.4589    395.04213   -794.41681   -1416.8159    797.59571   -1189.4589            0            0            0            0            0   -570.23875   -25.802783 
 1155000    331.16027    796.30707    795.25887     32620.76   -1149.4377    393.86322   -755.57443   -1384.8971    805.64859   -1149.4377            0            0            0            0            0   -570.18912   -25.770799 
 1160000    383.51842    240.15856    800.92353    32390.044   -1171.2305    456.13503   -715.09544   -1405.1286    804.30258   -1171.2305            0            0            0            0            0   -570.40448   -25.954365 
 1165000     367.4134   -100.52533    788.76443    32889.349   -1166.9126    436.98063   -729.93201    -1396.177    799.66199   -1166.9126            0            0            0            0            0   -570.39763   -25.560343 
 1170000    340.93087   -241.35489    815.54743    31809.246   -1223.1493    405.48381   -817.66553   -1450.0885    797.52513   -1223.1493            0            0            0            0            0     -570.586    -26.42826 
 1175000    331.99892   -582.59466    780.07907    33255.537   -1150.0479    394.86066   -755.18727   -1386.2947    806.47581   -1150.0479            0            0            0            0            0   -570.22905   -25.278889 
 1180000    362.91169   -26.741941    796.72864    32560.582   -1178.9335    431.62655     -747.307   -1415.4125    806.80085   -1178.9335            0            0            0            0            0   -570.32193   -25.818427 
 1185000    357.81155    161.72296    801.88198     32351.33   -1171.8762    425.56074   -746.31549   -1409.3187    807.81525   -1171.8762            0            0            0            0            0   -570.37278   -25.985424 
 1190000    340.05962    67.462728    788.40361    32904.401   -1158.2069     404.4476   -753.75932   -1391.5765    803.62667   -1158.2069            0            0            0            0            0   -570.25712    -25.54865 
 1195000    343.06432   -408.18155    783.52423    33109.312    -1150.741    408.02122   -742.71979    -1382.951    802.72186    -1150.741            0            0            0            0            0   -570.51186   -25.390531 
 1200000    341.31922    227.47947    819.06927    31672.472   -1211.9416     405.9457   -805.99592   -1455.7061    814.28053   -1211.9416            0            0            0            0            0   -570.51603   -26.542388 
 1205000    345.00093    64.424755    783.60336    33105.969   -1144.2315    410.32451   -733.90702   -1375.5745    801.48486   -1144.2315            0            0            0            0            0   -570.14193   -25.393095 
 1210000    352.57409    343.48198    809.64658    32041.077   -1185.7956     419.3316   -766.46396   -1425.1148    809.77252   -1185.7956            0            0            0            0            0   -570.45326    -26.23704 
 1215000    378.63301    683.76468     813.1561     31902.79   -1185.5279    450.32459   -735.20333   -1419.3122    804.16277   -1185.5279            0            0            0            0            0   -570.37849   -26.350768 
 1220000    338.80017   -405.24684    793.64184    32687.224   -1181.4313    402.94968   -778.48164   -1415.3965    804.38015   -1181.4313            0            0            0            0            0   -570.41501   -25.718398 
 1225000    337.87486    38.753586     789.3468    32865.084   -1162.1697    401.84916   -760.32054   -1402.4395    810.46001   -1162.1697            0            0            0            0            0   -570.19018   -25.579215 
 1230000    337.45064    300.37457    803.51482    32285.588   -1181.4216    401.34463   -780.07693    -1415.089    804.00871   -1181.4216            0            0            0            0            0   -570.34125   -26.038337 
 1235000    354.70043    369.09159    808.12772    32101.298    -1198.568    421.86055   -776.70741    -1432.908    804.63457    -1198.568            0            0            0            0            0    -570.2945   -26.187821 
 1240000    336.22997    103.98772    800.93103    32389.741   -1172.2764    399.89283    -772.3836   -1405.9366     803.8983   -1172.2764            0            0            0            0            0   -570.23814   -25.954608 
 1245000    329.36324   -287.37546    799.09968    32463.971   -1174.2249    391.72593   -782.49901   -1411.6999     808.0397   -1174.2249            0            0            0            0            0   -570.56471   -25.895262 
 1250000    336.44699    284.15124    817.24151    31743.308   -1212.7546    400.15094   -812.60362   -1452.5705     810.3194   -1212.7546            0            0            0            0            0   -570.50342   -26.483158 
 1255000    365.26118    151.77091    813.29548    31897.323   -1208.3265    434.42091   -773.90558   -1440.9512      802.994   -1208.3265            0            0            0            0            0   -570.36926   -26.355285 
 1260000    379.83205    224.82042    795.34911    32617.059   -1165.8228    451.75067    -714.0721   -1401.3688     805.5806   -1165.8228            0            0            0            0            0   -570.03457   -25.773723 
 1265000    347.34052    25.084677    802.02719    32345.473   -1178.7994    413.10709   -765.69229   -1410.1441    801.67802   -1178.7994            0            0            0            0            0   -570.33329    -25.99013 
 1270000    344.42584    144.00977    805.85555     32191.81   -1197.4993    409.64053   -787.85881   -1429.8761    802.65805   -1197.4993            0            0            0            0            0   -570.28131    -26.11419 
 1275000     332.2997    51.768165    794.90563    32635.256   -1155.5919     395.2184   -760.37348   -1388.6536    803.49818   -1155.5919            0            0            0            0            0   -570.43645   -25.759352 
 1280000    344.77947   -506.35868    783.19318    33123.308   -1156.4852    410.06112   -746.42406   -1391.0709    805.04638   -1156.4852            0            0            0            0            0   -570.46069   -25.379803 
 1285000    358.77275   -164.44594    807.47194    32127.369   -1203.4634    426.70394   -776.75951   -1439.8488    806.55545   -1203.4634            0            0            0            0            0   -570.17008    -26.16657 
 1290000    346.49667    1.3948575    812.99363    31909.166   -1212.5471    412.10346   -800.44361   -1446.7288    804.70522   -1212.5471            0            0            0            0            0   -570.52353   -26.345503 
 1295000    336.65901   -111.15893    781.04671    33214.337   -1135.8868    400.40311    -735.4837   -1375.2271    809.89761   -1135.8868            0            0            0            0            0   -570.55732   -25.310246 
 1300000    379.12956    482.32935    804.15449    32259.907    -1178.278    450.91516   -727.36288    -1416.436    808.50691    -1178.278            0            0            0            0            0   -570.34894   -26.059066 
 1305000    337.67215   -381.41305    793.07468      32710.6   -1181.4715    401.60807   -779.86346   -1413.6657      802.556   -1181.4715            0            0            0            0            0   -570.36187   -25.700019 
 1310000    362.07316    -65.79938    796.62423     32564.85   -1175.4657    430.62926    -744.8364   -1414.6531     809.5501   -1175.4657            0            0            0            0            0   -570.36266   -25.815044 
 1315000    367.41374   -372.68075    804.82358    32233.087   -1210.0375    436.98104   -773.05651   -1441.6465    802.02252   -1210.0375            0            0            0            0            0   -570.41359   -26.080748 
 1320000    349.95367    528.81135    805.01554    32225.401   -1163.3552    416.21503   -747.14019   -1400.5362    807.56508   -1163.3552            0            0            0            0            0    -570.3841   -26.086969 
 1325000    367.10511    -210.2487    804.87005    32231.226   -1206.1406    436.61397   -769.52662   -1438.0714    802.30178   -1206.1406            0            0            0            0            0   -570.37097   -26.082254 
 1330000    367.43687    8.6314628    806.42158    32169.214   -1193.1661    437.00855   -756.15751    -1426.694    804.00222   -1193.1661            0            0            0            0            0   -570.47432   -26.132532 
 1335000    348.00922    -329.0349    802.26759    32335.781   -1196.2806     413.9024   -782.37822   -1436.4101    810.47814   -1196.2806            0            0            0            0            0   -570.34865    -25.99792 
 1340000    360.17856   -67.911648    788.67937    32892.896   -1156.5142    428.37592   -728.13823   -1389.9466    803.86221   -1156.5142            0            0            0            0            0   -570.42981   -25.557586 
 1345000    339.01946    134.65409    806.92452    32149.164   -1190.1541     403.2105   -786.94355   -1419.8317    800.17576   -1190.1541            0            0            0            0            0   -570.49816    -26.14883 
 1350000    340.62588   -292.70871    773.71344    33529.143   -1131.5575    405.12108   -726.43638   -1369.2629    807.58221   -1131.5575            0            0            0            0            0   -569.87678   -25.072607 
 1355000    356.78083    276.97121    826.18766    31399.584   -1239.6117    424.33486   -815.27688   -1473.0506    803.72849   -1239.6117            0            0            0            0            0   -570.28966   -26.773063 
 1360000    355.82392   -51.041217    789.98017    32838.734   -1169.2707    423.19677   -746.07394   -1400.2302    801.04902   -1169.2707            0            0            0            0            0   -570.08954   -25.599739 
 1365000    352.08228    204.41608    811.00014    31987.601   -1190.1879    418.74667   -771.44119   -1431.8117     811.5805   -1190.1879            0            0            0            0            0    -569.9567   -26.280903 
 1370000    349.73033   -275.82383    807.34922    32132.252   -1197.7558    415.94939   -781.80636   -1434.8419    807.41618   -1197.7558            0            0            0            0            0   -570.33004   -26.162593 
 1375000    355.41937   -209.34063    792.86098    32719.417   -1161.6818    422.71562    -738.9662   -1398.1868    806.87737   -1161.6818            0            0            0            0            0   -570.37239   -25.693094 
 1380000    337.69982   -151.49329    814.82981     31837.26   -1225.6099    401.64099    -823.9689   -1457.8619    802.92013   -1225.6099            0            0            0            0            0   -570.66808   -26.405006 
 1385000    348.40166    149.75482    794.01374    32671.914   -1150.3568    414.36915   -735.98761   -1384.9664    805.15184   -1150.3568            0            0            0            0            0    -570.5422   -25.730449 
 1390000    361.79749   -445.51225    777.20597    33378.473   -1136.7217    430.30138   -706.42036   -1367.5327    801.27443   -1136.7217            0            0            0            0            0   -570.46343   -25.185785 
 1395000    351.80648    521.40544    820.36507    31622.444   -1203.7603    418.41865    -785.3417   -1440.6038    807.30297   -1203.7603            0            0            0            0            0   -570.45952   -26.584379 
 1400000    337.62943   -235.67994    798.63684    32482.785   -1168.9493    401.55727   -767.39207   -1407.3133    808.73132   -1168.9493            0            0            0            0            0   -570.36739   -25.880263 
 1405000    337.71728    738.32158    800.63669    32401.648   -1153.0552    401.66175   -751.39347   -1382.6988    800.04927   -1153.0552            0            0            0            0            0   -570.40566    -25.94507 
 1410000    325.00326    33.749324    794.68177    32644.449    -1165.647    386.54043   -779.10659   -1391.8871    796.66563    -1165.647            0            0            0            0            0   -570.42558   -25.752097 
 1415000    325.33703    78.887528    795.28438    32619.714   -1149.4614    386.93739   -762.52397   -1397.5423    818.48896   -1149.4614            0            0            0            0            0   -570.40803   -25.771625 
 1420000    347.34785    17.879227     813.2548    31898.918   -1210.1885     413.1158   -797.07269   -1446.4481    806.54804   -1210.1885            0            0            0            0            0   -570.28848   -26.353967 
 1425000     339.8756    57.223176    814.54091    31848.552   -1224.5414    404.22874   -820.31265   -1453.1833    798.64614   -1224.5414            0            0            0            0            0   -570.00421   -26.395644 
 1430000    361.99615    10.145044    822.61389    31535.996   -1246.1449    430.53766   -815.60724   -1477.2241    801.79137   -1246.1449            0            0            0            0            0    -570.7122   -26.657253 
 1435000    336.66955    224.50565    795.02155    32630.498   -1168.8922    400.41565   -768.47652   -1397.6739    799.30036   -1168.8922            0            0            0            0            0   -570.51859   -25.763108 
 1440000    353.05844    -317.3674    797.38857    32533.635   -1182.1155    419.90766   -762.20781   -1418.5559     806.9419   -1182.1155            0            0            0            0            0   -570.50149   -25.839813 
 1445000    340.10314    348.16786    797.72364     32519.97   -1161.1488    404.49936   -756.64941   -1395.4485    804.68909   -1161.1488            0            0            0            0            0   -570.38937   -25.850671 
 1450000    339.41081   -199.16091    791.88566    32759.715   -1162.7259    403.67594   -759.04991   -1400.8466    808.29654   -1162.7259            0            0            0            0            0   -570.17578   -25.661488 
 1455000    341.81389    79.199993    808.34403    32092.708    -1195.705    406.53403   -789.17093   -1427.6816    802.21039    -1195.705            0            0            0            0            0   -570.23375    -26.19483 
 1460000    348.14872    75.672573    801.81694    32353.954     -1183.14    414.06831   -769.07168   -1418.5618    805.70755     -1183.14            0            0            0            0            0   -570.28573   -25.983317 
 1465000    360.52426   -500.82087    779.73617    33270.162   -1153.1685    428.78708   -724.38144   -1385.6252     802.9495   -1153.1685            0            0            0            0            0    -570.4928   -25.267777 
 1470000    346.83184    34.481965    772.97109    33561.344    -1110.234     412.5021   -697.73192   -1342.4083    802.63561    -1110.234            0            0            0            0            0   -570.46131   -25.048551 
 1475000    343.24723   -236.68849    801.53917    32365.166   -1192.7833    408.23877   -784.54449   -1423.3076    800.76457   -1192.7833            0            0            0            0            0   -570.24021   -25.974315 
 1480000    351.01769   -189.66833    796.98367    32550.163   -1174.9466     417.4805    -757.4661   -1419.7513    815.18035   -1174.9466            0            0            0            0            0   -570.37562   -25.826692 
 1485000    356.34798   -47.036264    797.64193    32523.301   -1174.0931    423.82005   -750.27308   -1401.1163    797.36268   -1174.0931            0            0            0            0            0   -570.33951   -25.848023 
 1490000    371.96804    75.208206    800.63386    32401.763   -1178.7908    442.39767   -736.39313   -1411.6203    803.30024   -1178.7908            0            0            0            0            0   -570.47071   -25.944978 
 1495000    365.01855    169.38744    813.49043    31889.679   -1209.4241    434.13234   -775.29173   -1443.3381    804.17179   -1209.4241            0            0            0            0            0    -570.2578   -26.361602 
 1500000    350.03034   -34.931953    810.48548    32007.913   -1209.9333    416.30621   -793.62707   -1444.1865    804.60141   -1209.9333            0            0            0            0            0   -570.34817   -26.264225 
 1505000    373.44511   -178.37018     798.5801    32485.093    -1185.325     444.1544   -741.17062   -1415.6662    800.75511    -1185.325            0            0            0            0            0   -570.41394   -25.878425 
 1510000    374.20498    302.29942    808.24202    32096.758   -1197.7983    445.05815   -752.74014   -1422.7112    795.40314   -1197.7983            0            0            0            0            0    -570.4902   -26.191525 
 1515000    365.59555   -213.55693    795.59119    32607.134   -1187.4449    434.81859   -752.62629   -1424.7659    807.79589   -1187.4449            0            0            0            0            0    -570.4749   -25.781568 
 1520000    357.18546   -84.202622    793.65562    32686.657   -1163.2269    424.81611   -738.41078    -1403.602     810.6926   -1163.2269            0            0            0            0            0   -570.31752   -25.718844 
 1525000    339.94248   -147.66747    804.49716    32246.166    -1195.928    404.30828   -791.61971   -1429.8003    804.26476    -1195.928            0            0            0            0            0   -570.39246    -26.07017 
 1530000    357.28982    33.707796     796.0642    32587.759   -1183.1409    424.94022   -758.20068   -1416.1525    803.23332   -1183.1409            0            0            0            0            0   -570.22171   -25.796896 
 1535000    345.93909   -416.17387    802.24079    32336.861   -1200.9254    411.44031   -789.48505    -1434.895    804.37577   -1200.9254            0            0            0            0            0   -570.40613   -25.997052 
 1540000    347.44115   -499.86029    792.98029    32714.493   -1187.3702    413.22677   -774.14343    -1417.508    800.72107   -1187.3702            0            0            0            0            0   -570.58325    -25.69696 
 1545000    322.08016    290.75428    782.96502     33132.96   -1135.0529    383.06385   -751.98901    -1368.762    804.15419   -1135.0529            0            0            0            0            0   -570.44504    -25.37241 
 1550000    335.38895    140.75446    814.15511    31863.644   -1201.9335    398.89257   -803.04092    -1442.364    810.72294   -1201.9335            0            0            0            0            0   -570.29247   -26.383142 
 1555000    377.38408   -14.526222    804.35194    32251.987   -1183.9137     448.8392   -735.07451   -1422.3355    808.99756   -1183.9137            0            0            0            0            0   -570.57578   -26.065464 
 1560000    363.28957    39.693221    793.63719    32687.416   -1153.3568    432.07598   -721.28082   -1390.5712    807.62095   -1153.3568            0            0            0            0            0   -570.40657   -25.718247 
 1565000    344.07388   -109.44183    783.30185    33118.712   -1129.5867    409.22194   -720.36473   -1370.3702    811.24207   -1129.5867            0            0            0            0            0   -570.45851   -25.383325 
 1570000    367.63086    625.56714    813.07483    31905.979   -1190.9136    437.23927    -753.6743   -1426.7976    806.24459   -1190.9136            0            0            0            0            0   -570.36057   -26.348135 
 1575000    352.93969    410.35117    803.09676    32302.395   -1172.4241    419.76642   -752.65765   -1408.6911    806.71299   -1172.4241            0            0            0            0            0   -570.44593    -26.02479 
 1580000    328.21977   -199.56649    801.41827    32370.049   -1190.7536    390.36595   -800.38763   -1429.7726    809.36316   -1190.7536            0            0            0            0            0   -570.34414   -25.970397 
 1585000    362.87599    185.78707    814.59954     31846.26   -1195.4093     431.5841   -763.82523   -1432.4922    807.60321   -1195.4093            0            0            0            0            0    -570.5203   -26.397544 
 1590000    359.25113     9.128323    798.34853    32494.515    -1179.363     427.2729   -752.09009   -1421.5294    812.48792    -1179.363            0            0            0            0            0    -570.3215   -25.870921 
 1595000    357.07466   -29.298202    812.21382    31939.802   -1220.5676    424.68433   -795.88324    -1452.416    802.15216   -1220.5676            0            0            0            0            0   -570.30371   -26.320233 
[...]
 4600000     336.9334    87.800451    802.33378    32333.113    -1172.583    400.72945   -771.85358   -1414.4424     812.3051    -1172.583            0            0            0            0            0   -570.44574   -26.000065 
 4605000    353.58192    32.207156    796.83676    32556.165   -1166.8555    420.53026   -746.32527   -1396.5275    800.19589   -1166.8555            0            0            0            0            0   -570.52389   -25.821931 
 4610000    362.80796    -310.0779    811.78692    31956.599   -1216.6024    431.50318   -785.09924   -1449.5666    803.31632   -1216.6024            0            0            0            0            0   -570.35215   -26.306399 
 4615000    380.63188   -100.50809    795.00802    32631.053   -1166.3076    452.70194   -713.60564   -1403.3117     807.3443   -1166.3076            0            0            0            0            0   -570.34017    -25.76267 
 4620000    347.04492   -243.61136    802.35534    32332.244   -1188.9053    412.75551   -776.14977   -1422.6683    804.43165   -1188.9053            0            0            0            0            0   -570.66868   -26.000763 
 4625000    341.28169   -478.97561    809.12835    32061.599    -1222.772    405.90106    -816.8709   -1449.5535    797.00297    -1222.772            0            0            0            0            0    -570.2214   -26.220247 
 4630000    354.50489    -95.70674    815.48484    31811.687   -1231.1914    421.62799   -809.56343   -1462.8017    802.00716   -1231.1914            0            0            0            0            0    -570.3969   -26.426232 
 4635000    354.58524    148.54053    795.28916    32619.517   -1166.8916    421.72355   -745.16801   -1397.9306    801.33583   -1166.8916            0            0            0            0            0   -570.29681    -25.77178 
 4640000    376.51113   -199.08081    815.03215    31829.356   -1214.8116    447.80096   -767.01061   -1451.8024    807.21383   -1214.8116            0            0            0            0            0   -570.22303   -26.411563 
 4645000    346.36314    -95.84508    795.90937    32594.099   -1178.8299    411.94465   -766.88528   -1413.9982    805.46969   -1178.8299            0            0            0            0            0   -570.30147   -25.791878 
 4650000    369.33083    159.27235    776.49788    33408.911   -1125.4895    439.26112   -686.22841    -1362.468    807.57132   -1125.4895            0            0            0            0            0   -570.59285   -25.162839 
 4655000    361.54008    -58.99169    795.74905    32600.666   -1167.0039    429.99524   -737.00862   -1397.6356    800.86698   -1167.0039            0            0            0            0            0   -570.23524   -25.786683 
 4660000    337.80883    229.79214    799.15784    32461.608   -1181.4243    401.77063   -779.65368   -1408.7665    797.84788   -1181.4243            0            0            0            0            0   -570.50568   -25.897147 
 4665000    330.27628   -33.517535    816.61195     31767.78   -1222.8001    392.81185   -829.98822   -1453.6747    801.43587   -1222.8001            0            0            0            0            0   -570.56126   -26.462757 
 4670000    348.44711    7.7553146    777.24003     33377.01   -1109.1618    414.42321   -694.73858   -1355.1679    816.05014   -1109.1618            0            0            0            0            0   -570.04403   -25.186888 
 4675000    340.86387   -380.80669    812.36781    31933.748   -1211.1863    405.40413   -805.78213   -1449.1323    808.44399   -1211.1863            0            0            0            0            0    -570.4979   -26.325223 
 4680000    371.16991     -554.735    779.70815    33271.358   -1162.0831    441.44841    -720.6347   -1393.3265     801.5353   -1162.0831            0            0            0            0            0   -570.29195   -25.266869 
 4685000    340.19593   -230.74094     783.0774    33128.205   -1150.3129    404.60972   -745.70319   -1382.7465    802.61852   -1150.3129            0            0            0            0            0   -570.18497   -25.376051 
 4690000    362.75825   -182.45644    788.17585     32913.91   -1159.2964    431.44407   -727.85235    -1392.424    803.42499   -1159.2964            0            0            0            0            0   -570.29744   -25.541269 
 4695000    357.56472    546.50054    800.52015    32406.366   -1152.9361    425.26718   -727.66891   -1392.4785    809.97167   -1152.9361            0            0            0            0            0   -570.42921   -25.941293 
 4700000    376.96904   -396.96245    781.23209    33206.456   -1148.4754    448.34556   -700.12983   -1384.5152    806.48091   -1148.4754            0            0            0            0            0    -570.4411   -25.316253 
 4705000    333.94049    250.30566     816.7716     31761.57   -1208.7821    397.16985   -811.61226   -1445.3295    807.00473   -1208.7821            0            0            0            0            0   -570.45737    -26.46793 
 4710000    345.70565   -215.10603     792.3262    32741.501   -1166.2505    411.16267   -755.08779   -1401.7599    806.07828   -1166.2505            0            0            0            0            0   -570.56886   -25.675764 
 4715000    370.21676    257.78294    802.42192    32329.561   -1174.7899    440.31479    -734.4751   -1408.1283    803.70588   -1174.7899            0            0            0            0            0   -570.36749   -26.002921 
 4720000    369.13538   -339.56012    805.92862    32188.891   -1200.2832    439.02866   -761.25457   -1430.4831     800.4259   -1200.2832            0            0            0            0            0   -570.22599   -26.116558 
 4725000    353.65246   -232.96126    782.19954    33165.385   -1150.7784    420.61415    -730.1643   -1386.6559    806.10011   -1150.7784            0            0            0            0            0   -570.22265   -25.347604 
 4730000    350.34311   -69.727412    786.38988     32988.66   -1144.1615     416.6782   -727.48335   -1375.4216    801.60101   -1144.1615            0            0            0            0            0   -570.34098   -25.483394 
 4735000    367.02426   -126.83482    793.75193    32682.691   -1161.3352    436.51781   -724.81742   -1401.9368    810.79854   -1161.3352            0            0            0            0            0   -570.19699   -25.721965 
 4740000    339.44506    440.43811    800.34464    32413.472   -1165.6275    403.71668   -761.91081   -1400.4842      805.325   -1165.6275            0            0            0            0            0   -570.46833   -25.935606 
 4745000    368.07371    133.51477    792.90651    32717.537   -1169.2732    437.76597   -731.50727   -1403.5148    804.44006   -1169.2732            0            0            0            0            0   -570.19846   -25.694569 
 4750000    353.80843    48.834041    800.68476    32399.703   -1184.2006    420.79966   -763.40094   -1420.5773    806.83626   -1184.2006            0            0            0            0            0   -570.45957   -25.946628 
 4755000    360.74087   -244.82739    801.62082     32361.87   -1200.8815    429.04471   -771.83681   -1432.5259    802.05041   -1200.8815            0            0            0            0            0   -570.40601   -25.976961 
 4760000     351.3231   -1.4369952    811.20506     31979.52   -1205.1383    417.84375    -787.2946   -1443.2278    808.58338   -1205.1383            0            0            0            0            0   -570.49396   -26.287544 
 4765000    351.60113    137.31883    808.60616    32082.304   -1197.2253    418.17441   -779.05088   -1427.2776    800.46106   -1197.2253            0            0            0            0            0   -570.40873   -26.203325 
 4770000    340.75513    539.12964    804.33014    32252.862   -1170.9364     405.2748    -765.6616   -1406.0136    805.19564   -1170.9364            0            0            0            0            0   -570.11849   -26.064758 
 4775000    340.39325   -554.80529    785.86216    33010.813   -1163.5888     404.8444   -758.74442   -1401.7129    808.28067   -1163.5888            0            0            0            0            0    -570.1566   -25.466293 
 4780000    350.06809     344.2968    819.72879     31646.99   -1217.4076     416.3511   -801.05654   -1444.3409    797.25748   -1217.4076            0            0            0            0            0    -570.3242    -26.56376 
 4785000    346.67357    208.67346    826.10907    31402.571   -1238.5199    412.31385     -826.206   -1479.1845    810.87232   -1238.5199            0            0            0            0            0   -570.20766   -26.770516 
 4790000    329.81458   -86.850589    813.30914    31896.787   -1210.2321    392.26273   -817.96938   -1446.5989    806.74954   -1210.2321            0            0            0            0            0   -570.38277   -26.355727 
 4795000    354.78716    235.20466    814.79928    31838.453   -1200.3693     421.9637   -778.40557   -1438.4933    808.41112   -1200.3693            0            0            0            0            0   -570.28706   -26.404016 
 4800000     319.2401    86.527912    803.87532     32271.11   -1186.9704    379.68605   -807.28437   -1421.0054    804.34154   -1186.9704            0            0            0            0            0   -570.30654   -26.050019 
 4805000    374.46318    398.95656    805.71992    32197.229   -1182.7315    445.36524    -737.3663   -1409.7983    797.41187   -1182.7315            0            0            0            0            0   -570.34515   -26.109795 
 4810000    354.90655    163.27484    801.63014    32361.494   -1184.3243     422.1057   -762.21861   -1415.6693    801.89243   -1184.3243            0            0            0            0            0   -570.54744   -25.977263 
 4815000    344.84522   -550.10196    788.29053    32909.121   -1173.2151    410.13932   -763.07577   -1407.4585     804.3999   -1173.2151            0            0            0            0            0   -570.15649   -25.544986 
 4820000    343.98708    106.38787     802.2906    32334.853   -1178.5521     409.1187   -769.43343   -1413.7261    805.21773   -1178.5521            0            0            0            0            0   -570.04374   -25.998666 
 4825000    346.14391    137.92293    802.81428    32313.761   -1175.9277    411.68391   -764.24381   -1408.0832    802.51235   -1175.9277            0            0            0            0            0    -570.3569   -26.015636 
 4830000    353.08857   -13.206658    807.76828    32115.582   -1195.3642    419.94349   -775.42071   -1426.7096    801.67859   -1195.3642            0            0            0            0            0   -570.33324   -26.176173 
 4835000     333.7646   -85.769348    796.28267    32578.819   -1168.3601    396.96067   -771.39947   -1408.2053      810.302   -1168.3601            0            0            0            0            0   -570.45687   -25.803975 
 4840000     333.6101   -229.38428    796.87757    32554.497   -1172.8192    396.77691   -776.04227   -1412.1514    809.72004   -1172.8192            0            0            0            0            0   -570.38786   -25.823254 
 4845000    363.56463   -443.59988    804.26536     32255.46   -1203.4172    432.40312   -771.01406   -1443.9848    810.84442   -1203.4172            0            0            0            0            0   -570.27678   -26.062659 
 4850000    336.90452    144.98264    793.96745    32673.819    -1158.352     400.6951   -757.65686   -1399.4804    811.63167    -1158.352            0            0            0            0            0   -570.50319   -25.728949 
 4855000    347.45067   -44.094592    814.40074    31854.034   -1217.9835    413.23809   -804.74539   -1454.6236     806.9156   -1217.9835            0            0            0            0            0   -570.27551   -26.391101 
 4860000    341.06294    704.66421    808.82158    32073.759   -1181.4561     405.6409    -775.8152   -1408.7997    797.60289   -1181.4561            0            0            0            0            0   -570.25931   -26.210306 
 4865000    362.79736    203.89223    813.40431    31893.055   -1203.3861    431.49057   -771.89552   -1436.8406    803.93018   -1203.3861            0            0            0            0            0   -570.47562   -26.358811 
 4870000    363.05399    404.28804    828.89025    31297.206   -1238.1567     431.7958    -806.3609   -1468.0642    800.30721   -1238.1567            0            0            0            0            0    -570.3997   -26.860642 
 4875000    358.41931    346.10104    798.23974    32498.944   -1160.0325    426.28357   -733.74894   -1397.0348     807.2253   -1160.0325            0            0            0            0            0   -570.22302   -25.867395 
 4880000    353.44106    133.59791    796.06202    32587.849    -1161.408    420.36273   -741.04529   -1395.3459    804.05986    -1161.408            0            0            0            0            0   -570.12196   -25.796825 
 4885000    350.04218   -200.00123    798.60399    32484.121    -1179.633    416.32029   -763.31274   -1412.8074    803.65491    -1179.633            0            0            0            0            0   -570.48055   -25.879199 
 4890000     363.1995    47.668439    817.65821     31727.13    -1231.093    431.96886   -799.12416   -1460.1541    799.33198    -1231.093            0            0            0            0            0   -570.27091   -26.496662 
 4895000    313.63206    99.425698     788.3445    32906.868   -1138.6218    373.01616   -765.60566   -1379.2361    810.83506   -1138.6218            0            0            0            0            0   -570.22077   -25.546735 
 4900000    352.47882   -327.57955    803.39161     32290.54   -1201.6812     419.2183    -782.4629   -1435.2043    803.72419   -1201.6812            0            0            0            0            0    -570.2011   -26.034344 
 4905000    361.34096   -119.74698    777.57894    33362.463   -1144.1352    429.75841   -714.37678   -1376.4258    802.50187   -1144.1352            0            0            0            0            0   -570.21125   -25.197871 
 4910000    358.86142    466.67913    828.86156    31298.289   -1227.6314    426.80939   -800.82197   -1464.8692    807.73058   -1227.6314            0            0            0            0            0   -570.49272   -26.859712 
 4915000    338.88727    -177.4753    799.53717    32446.207   -1182.3918    403.05327   -779.33855   -1411.6021     799.5542   -1182.3918            0            0            0            0            0   -570.34389   -25.909439 
 4920000    347.99774    16.723479    804.96089    32227.589   -1190.9231    413.88875   -777.03439   -1422.6008     802.0946   -1190.9231            0            0            0            0            0   -570.41699   -26.085198 
 4925000    333.72669   -158.38228     799.3917    32452.111   -1182.9828    396.91557   -786.06725   -1419.9167    807.15801   -1182.9828            0            0            0            0            0   -570.22416   -25.904725 
 4930000    353.76625    51.206835    800.51561    32406.549   -1175.3033    420.74949   -754.55383   -1410.5548    805.84172   -1175.3033            0            0            0            0            0    -570.5902   -25.941146 
 4935000    306.49201    23.652974    811.28798    31976.252   -1200.9624    364.52419   -836.43821   -1433.0713    802.51419   -1200.9624            0            0            0            0            0   -570.40533   -26.290231 
 4940000    355.28619   -36.681653    804.84853    32232.088   -1183.7362    422.55722   -761.17899   -1421.2916    807.79532   -1183.7362            0            0            0            0            0   -570.23996   -26.081557 
 4945000     319.7413    17.000869    813.51799    31888.599   -1211.2297    380.28215   -830.94751   -1442.2983    801.56176   -1211.2297            0            0            0            0            0   -570.49311   -26.362495 
 4950000    336.48453   -350.07687    795.72148    32601.795   -1181.8626     400.1956   -781.66695   -1411.9274    800.49315   -1181.8626            0            0            0            0            0   -570.42827    -25.78579 
 4955000    347.58526    8.9192321    791.98866    32755.455   -1168.9817    413.39816   -755.58357    -1398.606    800.03928   -1168.9817            0            0            0            0            0   -570.41499   -25.664826 
 4960000    343.35696   -411.03696     796.8237    32556.698   -1188.0801    408.36927   -779.71086   -1425.1606     807.5633   -1188.0801            0            0            0            0            0    -570.4828   -25.821508 
 4965000    347.21421   -226.97341     810.1387    32021.614   -1225.0804    412.95686   -812.12355   -1459.4536    804.76421   -1225.0804            0            0            0            0            0   -570.39105   -26.252988 
 4970000    347.62498   -354.63292    799.29678    32455.966   -1176.3004    413.44541   -762.85501   -1412.4833    806.56837   -1176.3004            0            0            0            0            0   -570.38548   -25.901649 
 4975000    349.67559   -51.486079    789.44602    32860.953   -1156.9916    415.88429   -741.10731   -1395.6267    808.97233   -1156.9916            0            0            0            0            0   -570.33718    -25.58243 
 4980000    359.96001   -454.57774    783.92867    33092.231   -1160.6656      428.116   -732.54957   -1393.9372    803.43277   -1160.6656            0            0            0            0            0   -570.16114   -25.403637 
 4985000    366.95373    146.58576    797.16789    32542.641   -1171.8525    436.43393   -735.41859   -1396.2559    794.77587   -1171.8525            0            0            0            0            0   -570.37246   -25.832662 
 4990000    364.43248   -203.56192    797.92424    32511.794   -1178.0567    433.43529    -744.6214   -1416.5133    808.83571   -1178.0567            0            0            0            0            0   -570.37916   -25.857171 
 4995000    355.08061   -231.90745    797.36727    32534.504   -1178.7202    422.31271    -756.4075   -1418.3036    809.92885   -1178.7202            0            0            0            0            0   -570.34543   -25.839122 
 5000000    351.69258   -49.556023    792.57007    32731.426   -1173.6743    418.28318    -755.3911   -1406.3982    803.15512   -1173.6743            0            0            0            0            0   -570.43118   -25.683667 
Loop time of 156326 on 1 procs for 5000000 steps with 2400 atoms

Performance: 2.763 ns/day, 8.685 hours/ns, 31.984 timesteps/s
100.0% CPU use with 1 MPI tasks x 1 OpenMP threads

MPI task timing breakdown:
Section |  min time  |  avg time  |  max time  |%varavg| %total
---------------------------------------------------------------
Pair    | 1.4313e+05 | 1.4313e+05 | 1.4313e+05 |   0.0 | 91.56
Bond    | 8.8914     | 8.8914     | 8.8914     |   0.0 |  0.01
Kspace  | 4922.5     | 4922.5     | 4922.5     |   0.0 |  3.15
Neigh   | 4754.1     | 4754.1     | 4754.1     |   0.0 |  3.04
Comm    | 501.55     | 501.55     | 501.55     |   0.0 |  0.32
Output  | 0.060688   | 0.060688   | 0.060688   |   0.0 |  0.00
Modify  | 2881.2     | 2881.2     | 2881.2     |   0.0 |  1.84
Other   |            | 124.2      |            |       |  0.08

Nlocal:        2400.00 ave        2400 max        2400 min
Histogram: 1 0 0 0 0 0 0 0 0 0
Nghost:        18080.0 ave       18080 max       18080 min
Histogram: 1 0 0 0 0 0 0 0 0 0
Neighs:    1.70655e+06 ave 1.70655e+06 max 1.70655e+06 min
Histogram: 1 0 0 0 0 0 0 0 0 0

Total # of neighbors = 1706551
Ave neighs/atom = 711.06292
Ave special neighs/atom = 8.5000000
Neighbor list builds = 85470
Dangerous builds = 0
Total wall time: 52:15:45
