LAMMPS (29 Sep 2021 - Update 2)
OMP_NUM_THREADS environment is not set. Defaulting to 1 thread. (src/comm.cpp:98)
  using 1 OpenMP thread(s) per MPI task
Reading data file ...
  orthogonal box = (-15.466318 -15.466318 -15.466318) to (15.466318 15.466318 15.466318)
  1 by 1 by 1 MPI processor grid
  reading atoms ...
  2400 atoms
  scanning bonds ...
  3 = max bonds/atom
  scanning angles ...
  3 = max angles/atom
  scanning dihedrals ...
  4 = max dihedrals/atom
  reading bonds ...
  2400 bonds
  reading angles ...
  3600 angles
  reading dihedrals ...
  3600 dihedrals
Finding 1-2 1-3 1-4 neighbors ...
  special bond factors lj:    0        0        0       
  special bond factors coul:  0        0        0       
     3 = max # of 1-2 neighbors
     4 = max # of 1-3 neighbors
     8 = max # of 1-4 neighbors
    10 = max # of special neighbors
  special bonds CPU = 0.001 seconds
  read_data CPU = 0.024 seconds
  200 rigid bodies with 2400 atoms
PPPM initialization ...
  using 12-bit tables for long-range coulomb (src/kspace.cpp:340)
  G vector (1/distance) = 0.1428774
  grid = 6 6 6
  stencil order = 5
  estimated absolute RMS force accuracy = 0.0078609937
  estimated relative force accuracy = 2.3673149e-05
  using double precision FFTW3
  3d grid and FFT values/proc = 1331 216
Neighbor list info ...
  update every 1 steps, delay 10 steps, check yes
  max neighbors/atom: 2000, page size: 100000
  master list distance cutoff = 16.655
  ghost atom cutoff = 16.655
  binsize = 8.3275, bins = 4 4 4
  1 neighbor lists, perpetual/occasional/extra = 1 0 0
  (1) pair lj/cut/coul/long, perpetual
      attributes: half, newton on
      pair build: half/bin/newton
      stencil: half/bin/3d
      bin: standard
Setting up Verlet run ...
  Unit style    : real
  Current step  : 0
  Time step     : 1
Per MPI rank memory allocation (min/avg/max) = 29.12 | 29.12 | 29.12 Mbytes
Step Temp E_pair E_mol TotEng Press 
       0    272.40837     12647.25            0    12971.237    98408.847 
    5000    9581.1707    1565.7725            0    12961.073    69513.594 
Loop time of 341.476 on 1 procs for 5000 steps with 2400 atoms

Performance: 1.265 ns/day, 18.971 hours/ns, 14.642 timesteps/s
99.7% CPU use with 1 MPI tasks x 1 OpenMP threads

MPI task timing breakdown:
Section |  min time  |  avg time  |  max time  |%varavg| %total
---------------------------------------------------------------
Pair    | 285.94     | 285.94     | 285.94     |   0.0 | 83.74
Bond    | 0.0059124  | 0.0059124  | 0.0059124  |   0.0 |  0.00
Kspace  | 9.0121     | 9.0121     | 9.0121     |   0.0 |  2.64
Neigh   | 44.054     | 44.054     | 44.054     |   0.0 | 12.90
Comm    | 1.0324     | 1.0324     | 1.0324     |   0.0 |  0.30
Output  | 3.8737e-05 | 3.8737e-05 | 3.8737e-05 |   0.0 |  0.00
Modify  | 1.3025     | 1.3025     | 1.3025     |   0.0 |  0.38
Other   |            | 0.1327     |            |       |  0.04

Nlocal:        2400.00 ave        2400 max        2400 min
Histogram: 1 0 0 0 0 0 0 0 0 0
Nghost:        19267.0 ave       19267 max       19267 min
Histogram: 1 0 0 0 0 0 0 0 0 0
Neighs:    1.88193e+06 ave 1.88193e+06 max 1.88193e+06 min
Histogram: 1 0 0 0 0 0 0 0 0 0

Total # of neighbors = 1881930
Ave neighs/atom = 784.13750
Ave special neighs/atom = 8.5000000
Neighbor list builds = 420
Dangerous builds = 26
  create bodies CPU = 0.001 seconds
  200 rigid bodies with 2400 atoms
  3.8930168 = max distance from body owner to body atom
PPPM initialization ...
  using 12-bit tables for long-range coulomb (src/kspace.cpp:340)
  G vector (1/distance) = 0.1428774
  grid = 6 6 6
  stencil order = 5
  estimated absolute RMS force accuracy = 0.0078609937
  estimated relative force accuracy = 2.3673149e-05
  using double precision FFTW3
  3d grid and FFT values/proc = 1331 216
Setting up Verlet run ...
  Unit style    : real
  Current step  : 5000
  Time step     : 1
Per MPI rank memory allocation (min/avg/max) = 36.99 | 36.99 | 36.99 Mbytes
Step Temp E_pair E_mol TotEng Press Volume 
    5000    9581.1707    1565.7725            0    12961.073    60884.694    29597.212 
 1005000    294.50739   -1410.6128            0   -1060.3424   -239.36333    29431.022 
Loop time of 60183.4 on 1 procs for 1000000 steps with 2400 atoms

Performance: 1.436 ns/day, 16.718 hours/ns, 16.616 timesteps/s
99.5% CPU use with 1 MPI tasks x 1 OpenMP threads

MPI task timing breakdown:
Section |  min time  |  avg time  |  max time  |%varavg| %total
---------------------------------------------------------------
Pair    | 55773      | 55773      | 55773      |   0.0 | 92.67
Bond    | 2.2473     | 2.2473     | 2.2473     |   0.0 |  0.00
Kspace  | 1811.4     | 1811.4     | 1811.4     |   0.0 |  3.01
Neigh   | 1529.3     | 1529.3     | 1529.3     |   0.0 |  2.54
Comm    | 170.1      | 170.1      | 170.1      |   0.0 |  0.28
Output  | 3.6531e-05 | 3.6531e-05 | 3.6531e-05 |   0.0 |  0.00
Modify  | 862.48     | 862.48     | 862.48     |   0.0 |  1.43
Other   |            | 34.89      |            |       |  0.06

Nlocal:        2400.00 ave        2400 max        2400 min
Histogram: 1 0 0 0 0 0 0 0 0 0
Nghost:        19198.0 ave       19198 max       19198 min
Histogram: 1 0 0 0 0 0 0 0 0 0
Neighs:    1.89711e+06 ave 1.89711e+06 max 1.89711e+06 min
Histogram: 1 0 0 0 0 0 0 0 0 0

Total # of neighbors = 1897108
Ave neighs/atom = 790.46167
Ave special neighs/atom = 8.5000000
Neighbor list builds = 15043
Dangerous builds = 0
PPPM initialization ...
  using 12-bit tables for long-range coulomb (src/kspace.cpp:340)
  G vector (1/distance) = 0.14299935
  grid = 6 6 6
  stencil order = 5
  estimated absolute RMS force accuracy = 0.0078241613
  estimated relative force accuracy = 2.3562229e-05
  using double precision FFTW3
  3d grid and FFT values/proc = 1331 216
Setting up Verlet run ...
  Unit style    : real
  Current step  : 0
  Time step     : 1
Per MPI rank memory allocation (min/avg/max) = 37.00 | 37.00 | 37.00 Mbytes
Step Temp Press v_dens Volume PotEng KinEng TotEng E_vdwl E_coul E_pair E_bond E_angle E_dihed E_impro E_mol E_long E_tail 
       0    294.50739   -482.54824    881.44912    29431.022   -1410.6079    350.27037   -1060.3375   -1635.7414    804.39956   -1410.6079            0            0            0            0            0   -579.26612   -28.563841 
    5000    279.67621   -137.61747      875.658    29625.663   -1384.7394      332.631   -1052.1084   -1609.2542    803.93197   -1384.7394            0            0            0            0            0    -579.4172   -28.376176 
   10000    261.59324   -13.487533    893.98318    29018.385     -1427.45    311.12414   -1116.3259   -1654.8939    806.79941     -1427.45            0            0            0            0            0   -579.35556   -28.970014 
   15000    262.99207    188.70018    884.12578    29341.921    -1405.217    312.78783   -1092.4292   -1620.8574    794.97934    -1405.217            0            0            0            0            0   -579.33897   -28.650579 
   20000    272.77355    -198.0092    874.62636    29660.607   -1387.5155    324.42137   -1063.0942   -1609.7664    801.49005   -1387.5155            0            0            0            0            0   -579.23916   -28.342746 
   25000    280.24512    66.620661    889.82383    29154.028   -1423.8367    333.30763    -1090.529   -1644.1908    799.59542   -1423.8367            0            0            0            0            0   -579.24133   -28.835228 
   30000    281.19421    124.90324    881.30275     29435.91   -1409.6426    334.43642   -1075.2062   -1621.2898    791.03475   -1409.6426            0            0            0            0            0    -579.3876   -28.559098 
   35000    292.67721   -320.29183    872.69027     29726.41   -1396.4643    348.09365   -1048.3707   -1616.4623    799.30411   -1396.4643            0            0            0            0            0   -579.30616   -28.280005 
   40000    268.50322    373.04362    869.85534    29823.291   -1359.7234    319.34248   -1040.3809   -1573.6127    793.15995   -1359.7234            0            0            0            0            0   -579.27062   -28.188138 
   45000      281.062   -322.61803    880.38865    29466.473    -1413.632    334.27918   -1079.3528   -1634.3735    799.96302    -1413.632            0            0            0            0            0   -579.22151   -28.529476 
   50000    278.11004    473.13864    889.94646    29150.011   -1407.4549    330.76828   -1076.6866   -1621.7826    793.48681   -1407.4549            0            0            0            0            0    -579.1591   -28.839202 
   55000    281.45389   -109.90738    894.14916    29012.999   -1448.4964    334.74528   -1113.7511   -1653.2037    784.22009   -1448.4964            0            0            0            0            0   -579.51275   -28.975393 
   60000    297.49528    140.80121    890.04065    29146.926   -1417.1245    353.82399   -1063.3005   -1641.2886    803.60111   -1417.1245            0            0            0            0            0   -579.43704   -28.842254 
   65000    287.57308    110.28528      885.901    29283.124   -1414.0161    342.02309   -1071.9931   -1626.4137    791.80943   -1414.0161            0            0            0            0            0   -579.41188   -28.708106 
   70000    280.70339   -171.13363    892.49831    29066.664   -1437.8767    333.85267    -1104.024   -1653.2472    794.87197   -1437.8767            0            0            0            0            0   -579.50144   -28.921896 
   75000    278.39912    229.51891     884.2279    29338.532   -1411.0151    331.11211   -1079.9029   -1627.5753    795.80485   -1411.0151            0            0            0            0            0   -579.24461   -28.653889 
   80000    279.64786     265.7751    880.37917    29466.791   -1386.9006    332.59728   -1054.3033   -1608.1492    800.56238   -1386.9006            0            0            0            0            0   -579.31378   -28.529168 
   85000    287.79183    311.33936    889.50003    29164.641   -1412.1754    342.28326   -1069.8921   -1630.8207    798.17639   -1412.1754            0            0            0            0            0   -579.53108   -28.824735 
   90000    307.65168    209.82027    886.27203    29270.865   -1418.6866    365.90343   -1052.7832   -1629.4641    790.14685   -1418.6866            0            0            0            0            0   -579.36935    -28.72013 
   95000    280.35398    113.33087    888.46629    29198.574    -1421.479    333.43711   -1088.0419   -1634.5486    792.52489    -1421.479            0            0            0            0            0   -579.45534   -28.791236 
  100000    289.00997   -1.9782391    885.90778      29282.9   -1418.0514    343.73204   -1074.3194   -1636.7931    798.05173   -1418.0514            0            0            0            0            0    -579.3101   -28.708326 
  105000    277.73365   -165.72647    877.49931    29563.497   -1399.7188    330.32063   -1069.3982    -1611.682    791.17059   -1399.7188            0            0            0            0            0   -579.20743   -28.435845 
  110000    282.28813   -270.82132    870.71744    29793.763    -1376.341    335.73747   -1040.6035   -1605.4409    808.25029    -1376.341            0            0            0            0            0   -579.15038   -28.216075 
  115000    258.82668    370.87935    893.27709    29041.323   -1416.8917    307.83375   -1109.0579   -1639.6579    802.13505   -1416.8917            0            0            0            0            0   -579.36883   -28.947133 
  120000    274.06593   -322.19825    870.12786     29813.95   -1383.7803    325.95845   -1057.8219   -1606.3706    802.04969   -1383.7803            0            0            0            0            0   -579.45943   -28.196969 
  125000    298.84639    34.993774    896.40506    28939.985   -1445.6787    355.43092   -1090.2478    -1659.693    793.29699   -1445.6787            0            0            0            0            0   -579.28268   -29.048496 
  130000    277.95694   -178.02935     878.7506    29521.401   -1401.8917     330.5862   -1071.3055   -1615.9051    793.48474   -1401.8917            0            0            0            0            0   -579.47129   -28.476394 
  135000    295.91478   -23.792376    881.88882    29416.348    -1405.373    351.94424   -1053.4287   -1627.3627    801.31819    -1405.373            0            0            0            0            0   -579.32841   -28.578089 
  140000    281.92998   -233.66367    893.60462    29030.679   -1445.4378    335.31151   -1110.1263   -1663.9628    797.81288   -1445.4378            0            0            0            0            0   -579.28789   -28.957746 
  145000     289.0311     309.6811    896.42127    28939.461    -1430.617    343.75718   -1086.8598   -1647.6162     796.3155    -1430.617            0            0            0            0            0   -579.31626   -29.049022 
  150000    293.18363    315.37534    882.85273    29384.231   -1397.1506    348.69597   -1048.4546   -1616.3527    798.81591   -1397.1506            0            0            0            0            0   -579.61378   -28.609326 
  155000    273.57444   -356.11921    873.48925    29699.219   -1397.3021     325.3739   -1071.9282   -1616.4601    798.49016   -1397.3021            0            0            0            0            0   -579.33212   -28.305897 
  160000    290.55155   -228.44412     880.0473    29477.903   -1408.0612    345.56551   -1062.4957   -1617.8222    789.10862   -1408.0612            0            0            0            0            0   -579.34756   -28.518414 
  165000    264.83305   -112.08988    875.88835    29617.872   -1385.5783    314.97739   -1070.6009   -1602.7751    796.64459   -1385.5783            0            0            0            0            0   -579.44777   -28.383641 
  170000     284.9688    124.89486    871.89282    29753.598   -1370.8372     338.9257   -1031.9115   -1596.1482    804.75024   -1370.8372            0            0            0            0            0   -579.43925   -28.254164 
  175000    284.87071   -10.273636    881.41807    29432.059   -1409.0802    338.80905   -1070.2711    -1616.563     786.9237   -1409.0802            0            0            0            0            0   -579.44087   -28.562835 
  180000     281.1709    171.91891    879.15536    29507.809   -1398.7741     334.4087   -1064.3654   -1608.1019    788.46175   -1398.7741            0            0            0            0            0   -579.13392    -28.48951 
  185000    290.09776    230.62055    873.90456    29685.105   -1378.4064     345.0258   -1033.3806   -1595.7269    796.53896   -1378.4064            0            0            0            0            0   -579.21843   -28.319355 
  190000    289.32283    185.87785    879.44362    29498.137   -1391.8626    344.10415   -1047.7585   -1608.7523    796.07425   -1391.8626            0            0            0            0            0    -579.1846   -28.498852 
  195000     261.5554    279.08432    882.12352    29408.522   -1384.2091    311.07914   -1073.1299   -1601.3447    796.43364   -1384.2091            0            0            0            0            0   -579.29798   -28.585695 
  200000    288.07847    86.693049    889.84431    29153.357    -1421.764    342.62417   -1079.1399   -1642.5518    800.32802    -1421.764            0            0            0            0            0   -579.54028   -28.835891 
  205000    281.67391   -132.70746    887.71762    29223.199   -1430.2865    335.00696   -1095.2796   -1648.6414    797.71507   -1430.2865            0            0            0            0            0   -579.36017   -28.766975 
  210000     275.9631    15.722191    881.77805    29420.044   -1411.3405    328.21484   -1083.1257   -1628.8949    796.86336   -1411.3405            0            0            0            0            0     -579.309     -28.5745 
  215000    291.11113   -92.652187    871.25792     29775.28   -1378.3864    346.23104   -1032.1554   -1597.8127    798.76331   -1378.3864            0            0            0            0            0   -579.33699   -28.233589 
  220000    283.92826    197.70298    891.99941    29082.921   -1423.4459    337.68815   -1085.7577   -1638.9883    794.96091   -1423.4459            0            0            0            0            0   -579.41844   -28.905729 
  225000    279.20491   -76.667219    874.28952    29672.034   -1384.2415    332.07046   -1052.1711   -1608.6089    803.78671   -1384.2415            0            0            0            0            0   -579.41933    -28.33183 
  230000    275.75394    9.0710617     866.6774    29932.647   -1374.2529    327.96607   -1046.2869   -1590.9539    795.88842   -1374.2529            0            0            0            0            0    -579.1874   -28.085155 
  235000     281.2642    714.40885    882.53555    29394.792   -1369.3115    334.51966   -1034.7919   -1597.9712    807.98841   -1369.3115            0            0            0            0            0   -579.32871   -28.599047 
  240000    285.83681    665.98986    881.42582      29431.8   -1371.3285    339.95807   -1031.3704   -1595.1436     803.3166   -1371.3285            0            0            0            0            0   -579.50148   -28.563086 
  245000     277.8548    -195.5391    877.43809     29565.56   -1403.7368    330.46471   -1073.2721    -1627.299    802.97809   -1403.7368            0            0            0            0            0   -579.41598   -28.433861 
  250000    285.46785   -260.82742    875.92102    29616.767   -1399.1978    339.51925   -1059.6785   -1619.6086    799.42165   -1399.1978            0            0            0            0            0   -579.01081     -28.3847 
  255000    306.04381   -291.46602    878.79087    29520.048   -1406.9453    363.99113   -1042.9541   -1624.1802    796.49611   -1406.9453            0            0            0            0            0   -579.26116   -28.477699 
  260000    272.11365    113.57109    886.44988    29264.992   -1406.6863    323.63652   -1083.0498   -1623.8353    796.66617   -1406.6863            0            0            0            0            0   -579.51714   -28.725893 
  265000    277.61594    65.207381    881.53358    29428.203   -1390.3754    330.18063   -1060.1948   -1613.7598    802.49059   -1390.3754            0            0            0            0            0    -579.1062   -28.566578 
  270000    301.19411    552.79639    895.30972     28975.39   -1415.7654    358.22316   -1057.5423   -1638.6459    801.87626   -1415.7654            0            0            0            0            0   -578.99575   -29.013001 
  275000    286.94301    441.20588    890.92619    29117.955   -1408.3819    341.27372   -1067.1082   -1628.1693    799.17816   -1408.3819            0            0            0            0            0   -579.39074   -28.870951 
  280000    284.26453     63.44825    890.55561    29130.072   -1427.0302    338.08809   -1088.9421   -1642.8949    795.21842   -1427.0302            0            0            0            0            0   -579.35372   -28.858942 
  285000    292.25833   -89.641322    878.88465    29516.898   -1397.4196    347.59546   -1049.8242   -1613.6289    795.49794   -1397.4196            0            0            0            0            0   -579.28866   -28.480738 
  290000     273.6832   -287.50851    890.47704    29132.642   -1434.2588    325.50325   -1108.7556   -1656.4591    801.55265   -1434.2588            0            0            0            0            0    -579.3524   -28.856395 
  295000    282.86361    46.586176    881.65259     29424.23   -1402.6315    336.42191   -1066.2096   -1617.4075    794.27153   -1402.6315            0            0            0            0            0   -579.49547   -28.570434 
  300000    280.43714    181.31312    879.73855    29488.248   -1384.8531      333.536   -1051.3171   -1602.4226    797.09246   -1384.8531            0            0            0            0            0   -579.52298   -28.508409 
  305000    269.61101    33.175788    883.73445    29354.914   -1405.9689    320.66003   -1085.3089   -1625.4466    799.02317   -1405.9689            0            0            0            0            0   -579.54551   -28.637898 
  310000    297.47521     428.6018     885.7101    29289.435   -1399.6384    353.80013   -1045.8383   -1621.7172    801.55881   -1399.6384            0            0            0            0            0   -579.48002    -28.70192 
  315000    271.13219   -146.08741    886.92404    29249.347    -1422.946    322.46923   -1100.4768   -1635.0258    791.57379    -1422.946            0            0            0            0            0   -579.49396   -28.741259 
  320000    307.50688    488.32852     891.7088      29092.4   -1426.3038    365.73122   -1060.5725   -1642.1472    795.08151   -1426.3038            0            0            0            0            0   -579.23803   -28.896311 
  325000    285.65502    239.39192    886.71997    29256.078   -1404.1398    339.74185   -1064.3979   -1622.8052    798.24486   -1404.1398            0            0            0            0            0   -579.57942   -28.734645 
  330000    289.38042    187.26103     890.1521    29143.276    -1420.506    344.17264   -1076.3333   -1637.8521    796.78741    -1420.506            0            0            0            0            0   -579.44131   -28.845866 
  335000    265.09201   -332.60047    875.75892    29622.249   -1392.0491    315.28539   -1076.7638   -1614.2364    801.70894   -1392.0491            0            0            0            0            0   -579.52164   -28.379447 
  340000    274.22062   -226.59245    871.45677    29768.486   -1384.0724    326.14243     -1057.93   -1604.2717    799.43732   -1384.0724            0            0            0            0            0   -579.23807   -28.240033 
  345000    277.41135   -26.848654     886.9153    29249.635   -1414.2299    329.93731   -1084.2926   -1640.2315    805.30004   -1414.2299            0            0            0            0            0   -579.29835   -28.740975 
  350000    279.19876   -23.904961    897.12333    28916.814   -1449.3089    332.06315   -1117.2457   -1662.4041    792.40851   -1449.3089            0            0            0            0            0   -579.31329   -29.071772 
  355000     300.8766   -43.574265    874.24828    29673.434   -1380.3435    357.84555   -1022.4979   -1601.8395    800.97139   -1380.3435            0            0            0            0            0    -579.4753   -28.330494 
  360000    281.21185   -544.04745    883.79565    29352.881    -1429.453     334.4574   -1094.9956   -1641.5611    791.56398    -1429.453            0            0            0            0            0   -579.45587   -28.639881 
  365000    279.02102   -368.02346    887.16105    29241.532   -1442.2184    331.85176   -1110.3666   -1653.0714    790.06534   -1442.2184            0            0            0            0            0   -579.21228   -28.748939 
  370000    301.26247   -415.15585    873.66245    29693.331   -1407.6421    358.30447   -1049.3376   -1624.4332    796.23558   -1407.6421            0            0            0            0            0   -579.44448   -28.311509 
  375000    278.84702   -142.86476    862.69393     30070.86   -1356.4872    331.64481   -1024.8424   -1575.9527    798.90988   -1356.4872            0            0            0            0            0    -579.4444   -27.956069 
  380000     267.0862   -180.44135    869.12428    29848.376   -1377.6723    317.65715   -1060.0152   -1594.2745    795.97539   -1377.6723            0            0            0            0            0   -579.37321   -28.164448 
  385000    266.53062   -479.44981    885.05278    29311.188   -1434.6201    316.99638   -1117.6238   -1642.3728    787.25858   -1434.6201            0            0            0            0            0   -579.50586   -28.680619 
  390000    281.49627    17.395442    883.73599    29354.863   -1402.0975    334.79568   -1067.3018   -1623.3255    800.81513   -1402.0975            0            0            0            0            0   -579.58711   -28.637948 
  395000    284.24848    23.266434    888.04878    29212.301   -1415.2031      338.069   -1077.1341   -1633.4987    797.49232   -1415.2031            0            0            0            0            0   -579.19668   -28.777707 
  400000    271.59304    162.21591    885.47262    29297.291    -1399.652    323.01734   -1076.6347   -1621.3939    800.83716    -1399.652            0            0            0            0            0   -579.09528   -28.694225 
  405000    283.03751   -646.13619    873.56642    29696.596   -1399.2793    336.62874   -1062.6506   -1624.3589    804.47911   -1399.2793            0            0            0            0            0   -579.39955   -28.308397 
  410000    263.33298    409.06278    888.61808    29193.586   -1408.5191     313.1933   -1095.3258   -1622.4929    793.49362   -1408.5191            0            0            0            0            0   -579.51978   -28.796155 
  415000    284.54195   -728.69473    870.52904    29800.211    -1397.083    338.41803    -1058.665   -1617.7576     800.1789    -1397.083            0            0            0            0            0   -579.50429    -28.20997 
  420000    264.65464   -403.83901    873.16802    29710.145    -1401.121    314.76519   -1086.3558    -1616.227    794.40434    -1401.121            0            0            0            0            0   -579.29834   -28.295487 
  425000    296.04976   -467.82139    868.25281    29878.335    -1380.734    352.10477   -1028.6293    -1601.539    800.11131    -1380.734            0            0            0            0            0   -579.30638   -28.136207 
  430000    270.98041   -60.907451    868.40683    29873.036   -1370.1319    322.28871   -1047.8432   -1593.7218    802.88724   -1370.1319            0            0            0            0            0   -579.29735   -28.141198 
  435000    300.54856   -558.92633    864.23488    30017.243   -1375.8428    357.45539   -1018.3874   -1595.5263    798.88249   -1375.8428            0            0            0            0            0   -579.19902   -28.006004 
  440000    277.33044   -36.048075    883.66465    29357.233   -1418.6547    329.84108   -1088.8136   -1628.8631    789.73551   -1418.6547            0            0            0            0            0   -579.52711   -28.635636 
  445000    275.59766    198.59584    873.08367    29713.015   -1370.0322     327.7802    -1042.252   -1588.4016    797.74224   -1370.0322            0            0            0            0            0    -579.3729   -28.292754 
  450000    267.96781   -53.195522     897.6488    28899.887   -1442.7836    318.70569   -1124.0779   -1666.1794    802.87341   -1442.7836            0            0            0            0            0   -579.47755     -29.0888 
  455000    276.77338   -185.92162    882.04992    29410.975    -1412.278    329.17854   -1083.0995    -1625.859     792.8953    -1412.278            0            0            0            0            0    -579.3143    -28.58331 
  460000    267.02704    75.003086    892.71568    29059.587   -1435.2551    317.58679   -1117.6683   -1652.5059    796.66215   -1435.2551            0            0            0            0            0   -579.41129    -28.92894 
  465000    280.09776    63.689278    880.28325    29470.001   -1391.9176    333.13237   -1058.7853   -1614.8594    802.23257   -1391.9176            0            0            0            0            0    -579.2908    -28.52606 
  470000    273.77069    334.29862    891.91522    29085.666   -1420.2552    325.60731   -1094.6479   -1644.0581    802.95458   -1420.2552            0            0            0            0            0   -579.15171   -28.903001 
  475000    264.26625   -515.61149      883.909    29349.117   -1423.9886    314.30327   -1109.6853   -1644.7538    799.97905   -1423.9886            0            0            0            0            0   -579.21382   -28.643555 
  480000    286.18295   -5.4487329     881.5995    29426.002   -1397.2811    340.36974   -1056.9113   -1621.1389    803.30782   -1397.2811            0            0            0            0            0   -579.44996   -28.568714 
  485000    270.98015    42.608402    891.03299    29114.465   -1428.3577     322.2884   -1106.0693   -1642.2178     793.1641   -1428.3577            0            0            0            0            0   -579.30398   -28.874411 
  490000    270.23622   -361.35029    881.80883    29419.017   -1423.3481    321.40361   -1101.9445    -1640.748    796.54769   -1423.3481            0            0            0            0            0   -579.14787   -28.575497 
  495000    281.54827   -399.07456    875.26959     29638.81   -1405.1018    334.85752   -1070.2443   -1616.5015    790.78979   -1405.1018            0            0            0            0            0   -579.39009    -28.36359 
  500000    293.02036   -4.6262305    882.82051    29385.304   -1419.4391    348.50177   -1070.9373   -1637.6106    797.57068   -1419.4391            0            0            0            0            0   -579.39914   -28.608281 
  505000    284.95641    86.248295    887.29368    29237.162   -1417.2871    338.91097   -1078.3761   -1637.7277    799.74939   -1417.2871            0            0            0            0            0    -579.3088   -28.753237 
  510000     283.5404   -320.69297    884.74378    29321.425   -1427.9154    337.22685   -1090.6886   -1648.0876    799.43313   -1427.9154            0            0            0            0            0   -579.26093   -28.670606 
  515000    272.35051   -338.66212    870.46578    29802.376   -1376.3476    323.91823   -1052.4294    -1597.604    800.56333   -1376.3476            0            0            0            0            0   -579.30691    -28.20792 
  520000    290.40111     102.1063    883.92208    29348.683   -1405.5252    345.38659   -1060.1386   -1625.9594    799.80352   -1405.5252            0            0            0            0            0   -579.36937   -28.643978 
  525000    291.48687   -472.21689    877.12861    29575.992   -1397.2752    346.67793   -1050.5972   -1621.5313    803.52846   -1397.2752            0            0            0            0            0   -579.27232   -28.423832 
  530000    283.93523    271.33248    885.47474     29297.22   -1409.5114    337.69644    -1071.815   -1623.7532     793.4362   -1409.5114            0            0            0            0            0    -579.1944   -28.694293 
  535000    294.75526    317.56486    884.01363    29345.643   -1393.1116    350.56517   -1042.5464    -1613.144    799.37812   -1393.1116            0            0            0            0            0   -579.34567   -28.646945 
  540000    274.61223   -514.33948    876.81381    29586.611   -1409.2485    326.60819   -1082.6403   -1625.7712    795.95407   -1409.2485            0            0            0            0            0   -579.43135   -28.413631 
  545000    296.71982    80.812896    867.48696    29904.713   -1363.2059     352.9017   -1010.3042   -1585.6369    801.76685   -1363.2059            0            0            0            0            0   -579.33592   -28.111389 
  550000    281.73234   -467.98672     880.2239    29471.988   -1420.5537    335.07645   -1085.4773   -1637.4418    796.02173   -1420.5537            0            0            0            0            0   -579.13364   -28.524137 
  555000    270.70071    317.15355    896.41275    28939.736   -1429.9549    321.95605   -1107.9988   -1650.8319    799.97618   -1429.9549            0            0            0            0            0   -579.09915   -29.048745 
  560000    277.77311    36.245553    881.86926    29417.001   -1412.4067    330.36757   -1082.0392   -1629.0969    795.77836   -1412.4067            0            0            0            0            0   -579.08815   -28.577456 
  565000    290.24073   -239.03023    877.10507    29576.785   -1401.7069    345.19585    -1056.511   -1615.3228    792.80065   -1401.7069            0            0            0            0            0   -579.18473    -28.42307 
  570000     289.9463    27.811598    884.12257    29342.027   -1404.4439    344.84566   -1059.5982   -1627.6953    802.60719   -1404.4439            0            0            0            0            0   -579.35573   -28.650476 
  575000     276.2926   -634.90343    877.69081    29557.047    -1407.271    328.60673   -1078.6642   -1628.7197    800.72703    -1407.271            0            0            0            0            0   -579.27826   -28.442051 
  580000    282.42835    160.09721    886.85724     29251.55   -1410.4392    335.90424    -1074.535   -1624.9068    793.89215   -1410.4392            0            0            0            0            0   -579.42459   -28.739094 
  585000    268.94461    -415.6693    883.64684    29357.824    -1419.575    319.86744   -1099.7076   -1640.5225     800.4379    -1419.575            0            0            0            0            0   -579.49045   -28.635059 
  590000    291.37817   -108.71614     878.3437    29535.077   -1398.8244    346.54864   -1052.2758   -1620.9336    801.61451   -1398.8244            0            0            0            0            0   -579.50535   -28.463208 
  595000    279.54884    297.49863    888.61708    29193.619   -1408.4429    332.47951   -1075.9634   -1632.7558     803.6408   -1408.4429            0            0            0            0            0   -579.32788   -28.796122 
  600000    294.63768   -352.16618    872.00737     29749.69   -1394.1019    350.42532   -1043.6766   -1611.0148    796.27114   -1394.1019            0            0            0            0            0   -579.35822   -28.257876 
  605000    302.23803   -280.79006    870.91057    29787.156   -1380.4745    359.46475   -1021.0098   -1595.4935    794.29542   -1380.4745            0            0            0            0            0   -579.27639   -28.222333 
  610000    255.85415    175.16997    894.27279    29008.988   -1431.3644     304.2984    -1127.066   -1648.8707    796.65913   -1431.3644            0            0            0            0            0   -579.15288   -28.979399 
  615000    271.52218     172.7246    894.09361    29014.802   -1432.3405    322.93306   -1109.4075   -1650.3071    797.21618   -1432.3405            0            0            0            0            0   -579.24963   -28.973592 
  620000    288.91759   -319.68233    868.96583    29853.819   -1380.7387    343.62217   -1037.1165   -1606.9378    805.68239   -1380.7387            0            0            0            0            0   -579.48333   -28.159313 
  625000      276.065    144.24835    872.95621    29717.354   -1372.3707    328.33603   -1044.0347   -1591.4923      798.654   -1372.3707            0            0            0            0            0   -579.53239   -28.288623 
  630000     287.3104   -179.91028    855.94042    30308.124   -1352.6688    341.71068   -1010.9582   -1567.6086    794.25763   -1352.6688            0            0            0            0            0   -579.31788   -27.737218 
  635000    268.70217    112.60233    883.83519    29351.568   -1395.3839     319.5791   -1075.8048   -1623.1218    807.06286   -1395.3839            0            0            0            0            0   -579.32494   -28.641163 
  640000    265.48266   -436.79351    870.11569    29814.367   -1393.9201       315.75   -1078.1701   -1607.2245    792.46873   -1393.9201            0            0            0            0            0   -579.16433   -28.196575 
  645000     263.9563    172.65216    881.97173    29413.583   -1405.2898    313.93464   -1091.3552   -1610.0782    784.13199   -1405.2898            0            0            0            0            0   -579.34358   -28.580776 
  650000    268.38427    304.20064    883.69088    29356.361   -1395.7482    319.20101   -1076.5472   -1613.1308    796.71024   -1395.7482            0            0            0            0            0   -579.32766   -28.636486 
  655000    292.30292    259.04682    880.21414    29472.315   -1390.9628    347.64849   -1043.3143   -1603.9209    792.33813   -1390.9628            0            0            0            0            0   -579.38005   -28.523821 
  660000    295.20553    17.726361    867.89714     29890.58    -1368.229    351.10069   -1017.1284   -1588.2513    799.36119    -1368.229            0            0            0            0            0   -579.33893   -28.124681 
  665000    272.16408    100.15077    877.64972    29558.431   -1392.6407     323.6965   -1068.9442   -1611.8631    798.55578   -1392.6407            0            0            0            0            0   -579.33331   -28.440719 
  670000    271.51535    -600.5901    863.82292    30031.559   -1384.3457    322.92494   -1061.4208   -1600.4546    795.53273   -1384.3457            0            0            0            0            0   -579.42383   -27.992654 
  675000    290.37774   -252.94652    872.86927    29720.314   -1392.0663    345.35879   -1046.7075   -1612.3556    799.31792   -1392.0663            0            0            0            0            0   -579.02858   -28.285806 
  680000    276.35531    284.80101    894.94775     28987.11   -1433.8497    328.68131   -1105.1684   -1654.1083    799.54777   -1433.8497            0            0            0            0            0   -579.28919   -29.001271 
  685000    277.11651    -433.6059    871.86528    29754.538   -1396.3356    329.58664   -1066.7489   -1611.9086    795.10272   -1396.3356            0            0            0            0            0   -579.52967   -28.253271 
  690000     258.8493    -27.23368    891.13421    29111.158   -1429.2662    307.86066   -1121.4056   -1640.9481    790.97978   -1429.2662            0            0            0            0            0   -579.29792   -28.877692 
  695000    280.54828   -118.71084    879.65451    29491.065   -1415.7819    333.66819   -1082.1138   -1621.1699    784.82924   -1415.7819            0            0            0            0            0   -579.44126   -28.505686 
  700000    282.19091    292.93354    894.65542    28996.581   -1424.2782    335.62184   -1088.6564   -1638.4905    793.38423   -1424.2782            0            0            0            0            0   -579.17195   -28.991798 
  705000    278.19707   -186.40098    878.40166    29533.128   -1407.5474    330.87179   -1076.6756   -1623.5703    795.05929   -1407.5474            0            0            0            0            0   -579.03636   -28.465086 
  710000    281.28764    157.30587    894.79035    28992.209   -1433.5262    334.54754   -1098.9787   -1646.8497    792.76823   -1433.5262            0            0            0            0            0   -579.44481   -28.996171 
  715000    285.31704    509.07323    874.38215    29668.891   -1372.4895    339.33989   -1033.1496   -1584.8223    791.57542   -1372.4895            0            0            0            0            0   -579.24256   -28.334832 
  720000    273.78267    -259.0167    882.19856     29406.02   -1420.8731    325.62156   -1095.2515   -1632.7859    791.19283   -1420.8731            0            0            0            0            0   -579.28006   -28.588127 
  725000    303.68978   -331.46493    881.04769    29444.432   -1411.4685    361.19138   -1050.2771   -1637.0188    804.91358   -1411.4685            0            0            0            0            0   -579.36321   -28.550832 
  730000    285.25683     190.2517    877.57737    29560.868   -1389.6837    339.26827   -1050.4154   -1609.4995    799.05809   -1389.6837            0            0            0            0            0   -579.24233   -28.438375 
  735000    296.77593   -346.50021    874.15287    29676.673   -1393.9562    352.96844   -1040.9878    -1614.488    799.96574   -1393.9562            0            0            0            0            0   -579.43397   -28.327402 
  740000    279.35822    100.52131    891.31691    29105.191   -1422.8145     332.2528   -1090.5617    -1635.738    792.22127   -1422.8145            0            0            0            0            0   -579.29774   -28.883612 
  745000    275.92358   -270.06196    892.10585    29079.451   -1449.5394    328.16784   -1121.3715   -1658.6798     788.6372   -1449.5394            0            0            0            0            0   -579.49675   -28.909178 
  750000    269.39367    433.06141    891.81648    29088.887   -1418.4596    320.40153   -1098.0581   -1633.7791    794.77176   -1418.4596            0            0            0            0            0   -579.45224   -28.899801 
  755000    275.63275    374.66812    882.44028    29397.965    -1388.677    327.82194    -1060.855   -1609.3983    800.35225    -1388.677            0            0            0            0            0   -579.63095    -28.59596 
  760000    282.74971   -222.45813    874.11524     29677.95    -1387.647    336.28645   -1051.3605   -1607.0003    798.45871    -1387.647            0            0            0            0            0   -579.10536   -28.326182 
  765000    282.18177   -368.19526    871.99847    29749.993   -1384.8572    335.61097   -1049.2462   -1612.9128    807.62889   -1384.8572            0            0            0            0            0   -579.57324   -28.257587 
  770000    282.72251   -33.366184    875.00231    29647.863   -1390.1291     336.2541    -1053.875   -1602.2883    791.57275   -1390.1291            0            0            0            0            0   -579.41359   -28.354928 
  775000    290.11884   -192.41389    884.16535    29340.608   -1410.6866    345.05088   -1065.6357    -1630.502    799.34215   -1410.6866            0            0            0            0            0   -579.52675   -28.651862 
  780000    273.26689    -71.39961    898.46396    28873.667   -1452.1929    325.00812   -1127.1847   -1661.7495    788.89978   -1452.1929            0            0            0            0            0   -579.34319   -29.115216 
  785000    264.63508    31.809652    867.06675    29919.206   -1365.1921    314.74193   -1050.4502   -1585.5138    799.70077   -1365.1921            0            0            0            0            0   -579.37906   -28.097772 
  790000    290.37021    69.276186    884.47309    29330.399     -1416.73    345.34984   -1071.3802   -1632.5079    795.33451     -1416.73            0            0            0            0            0   -579.55667   -28.661834 
  795000    274.93748   -570.45992     872.0429    29748.477   -1390.7848    326.99503   -1063.7898   -1609.8375    798.45828   -1390.7848            0            0            0            0            0   -579.40567   -28.259027 
  800000    274.06465   -220.84294    890.44829    29133.582   -1431.1216    325.95693   -1105.1646   -1649.9407    798.18788   -1431.1216            0            0            0            0            0   -579.36879   -28.855464 
  805000    285.12353    256.59335    892.43821    29068.621   -1432.5664    339.10973   -1093.4567   -1644.4549    791.26048   -1432.5664            0            0            0            0            0   -579.37197   -28.919948 
  810000    262.61349    61.659519    874.36167    29669.586   -1381.5471    312.33758   -1069.2095   -1599.9521    797.80923   -1381.5471            0            0            0            0            0   -579.40427   -28.334168 
  815000    272.84868   -421.53301    871.53198    29765.917   -1394.0116    324.51073   -1069.5008   -1611.0129    796.38036   -1394.0116            0            0            0            0            0   -579.37901    -28.24247 
  820000    275.54813   -228.23209    871.35848    29771.844   -1390.2047    327.72129   -1062.4834   -1606.5439    795.38407   -1390.2047            0            0            0            0            0   -579.04491   -28.236848 
  825000    280.47657    55.126058    877.97769    29547.389   -1386.2588    333.58291   -1052.6759   -1606.9497    800.03942   -1386.2588            0            0            0            0            0   -579.34857   -28.451347 
  830000    283.73341    33.579007    881.71625    29422.106    -1400.496     337.4564   -1063.0396   -1621.8368    800.86065    -1400.496            0            0            0            0            0    -579.5199   -28.572497 
  835000    289.51035    236.81023    886.24231    29271.846   -1412.5502    344.32717    -1068.223   -1629.9779    796.75731   -1412.5502            0            0            0            0            0   -579.32961   -28.719167 
  840000    278.25674   -260.65523     866.0227    29955.276   -1370.5212    330.94277   -1039.5784   -1592.3237    801.14781   -1370.5212            0            0            0            0            0   -579.34523   -28.063939 
  845000    274.91901    304.22193    896.33919    28942.111   -1430.1099    326.97306   -1103.1369   -1653.4505    802.85112   -1430.1099            0            0            0            0            0   -579.51058   -29.046362 
  850000    260.01516   -164.41413    871.38533    29770.927     -1385.41    309.24727   -1076.1628   -1600.0803    793.95308     -1385.41            0            0            0            0            0   -579.28284   -28.237718 
  855000    272.41706   -316.61188    872.50677    29732.662   -1398.4265    323.99738   -1074.4291   -1611.6018    792.65844   -1398.4265            0            0            0            0            0    -579.4831   -28.274059 
  860000    269.82388   -224.48554    866.88534    29925.467   -1362.9325     320.9132   -1042.0193   -1594.7594    810.96527   -1362.9325            0            0            0            0            0   -579.13837   -28.091894 
  865000    282.78119    9.6522264    888.81741    29187.039   -1434.4824    336.32389   -1098.1585   -1647.6862    792.50642   -1434.4824            0            0            0            0            0   -579.30264   -28.802614 
  870000    280.59047    30.757065    891.82129     29088.73   -1427.6003    333.71837   -1093.8819   -1646.9058    798.75576   -1427.6003            0            0            0            0            0    -579.4502   -28.899957 
  875000    268.08143    7.0709443     873.6478    29693.829   -1383.6923    318.84083   -1064.8515   -1603.7567    799.48939   -1383.6923            0            0            0            0            0   -579.42508   -28.311035 
  880000    273.99579   -75.511893    888.79538    29187.763   -1422.1936    325.87504   -1096.3185   -1643.6813    801.00862   -1422.1936            0            0            0            0            0   -579.52084     -28.8019 
  885000    286.36502   -266.09364    875.47603     29631.82   -1402.1483    340.58629    -1061.562   -1615.1939    792.24734   -1402.1483            0            0            0            0            0   -579.20175    -28.37028 
  890000    285.00623    426.48395    890.23572    29140.539   -1413.5934    338.97022   -1074.6232   -1628.3323    794.22117   -1413.5934            0            0            0            0            0   -579.48232   -28.848575 
  895000    265.85678    -115.5834    878.75663    29521.198   -1407.1887    316.19496   -1090.9937   -1623.6561    796.02002   -1407.1887            0            0            0            0            0   -579.55262   -28.476589 
  900000    266.42799    461.99114    903.10531    28725.275   -1442.5983    316.87433    -1125.724    -1662.324    799.04835   -1442.5983            0            0            0            0            0   -579.32266   -29.265622 
  905000    291.50194   -413.08581    880.12752    29475.216   -1405.5477    346.69586   -1058.8518   -1631.0995    804.72127   -1405.5477            0            0            0            0            0   -579.16946   -28.521014 
  910000     285.7445   -60.947913    875.83254    29619.759   -1381.4747    339.84828   -1041.6264    -1602.038     799.9598   -1381.4747            0            0            0            0            0    -579.3965   -28.381833 
  915000    297.95461   -104.44698    871.03151     29783.02   -1382.7782    354.37029   -1028.4079   -1599.2253    795.77787   -1382.7782            0            0            0            0            0   -579.33079   -28.226252 
  920000    282.66063    107.75748    884.97799    29313.665   -1411.2247     336.1805   -1075.0442   -1634.1738    802.03111   -1411.2247            0            0            0            0            0   -579.08202   -28.678196 
  925000     272.6247   -416.18282    875.54335    29629.542   -1397.0219    324.24433   -1072.7775   -1625.3748    807.98419   -1397.0219            0            0            0            0            0   -579.63128   -28.372461 
  930000    292.14562   -24.409006    887.21861    29239.635   -1429.6999    347.46141   -1082.2385   -1640.4905    790.06875   -1429.6999            0            0            0            0            0   -579.27817   -28.750804 
  935000    273.47211   -151.14494    878.17499    29540.751    -1399.348     325.2522   -1074.0958   -1615.2111    795.41793    -1399.348            0            0            0            0            0   -579.55485   -28.457741 
  940000    267.80729    129.70901    882.80289     29385.89   -1392.3874    318.51478   -1073.8726   -1622.6775    809.63827   -1392.3874            0            0            0            0            0   -579.34808    -28.60771 
  945000    268.65045   -248.20634    890.17429     29142.55   -1430.7369    319.51759   -1111.2193   -1651.1863    799.84402   -1430.7369            0            0            0            0            0   -579.39461   -28.846585 
  950000    285.52239    -170.4501    873.28551    29706.148    -1389.761    339.58411   -1050.1769   -1608.0198    797.80272    -1389.761            0            0            0            0            0   -579.54394   -28.299295 
  955000    283.92474   -323.69777    874.25109    29673.339   -1395.2074    337.68397   -1057.5234    -1615.183    799.47089   -1395.2074            0            0            0            0            0   -579.49523   -28.330585 
  960000    266.08957   -161.52954    876.04821    29612.467   -1378.7955    316.47183   -1062.3237   -1611.1119    811.66851   -1378.7955            0            0            0            0            0   -579.35217   -28.388821 
  965000    293.92681    -180.6138    886.10116    29276.509   -1416.3096    349.57986   -1066.7298   -1641.0473    804.08397   -1416.3096            0            0            0            0            0   -579.34632   -28.714593 
  970000    252.09867    86.766108    874.24626    29673.503   -1378.4742    299.83184   -1078.6424   -1597.3044    798.45651   -1378.4742            0            0            0            0            0   -579.62637   -28.330428 
  975000     254.4602    60.336172    877.60764    29559.848   -1396.7394    302.64051   -1094.0989   -1612.3677    795.05215   -1396.7394            0            0            0            0            0   -579.42384   -28.439355 
  980000    260.07118    436.76394    877.58105    29560.744   -1377.1736     309.3139   -1067.8597   -1599.7589    801.76074   -1377.1736            0            0            0            0            0   -579.17551   -28.438494 
  985000     284.5755   -284.82849    879.99505    29479.653   -1408.9596    338.45794   -1070.5016   -1631.9523      802.384   -1408.9596            0            0            0            0            0   -579.39129   -28.516721 
  990000    282.57909   -402.11259    884.29155     29336.42   -1430.5781    336.08352   -1094.4946   -1645.7498    794.37525   -1430.5781            0            0            0            0            0   -579.20363   -28.655951 
  995000    271.53322   -538.05914    874.77734    29655.488   -1404.2887    322.94619   -1081.3425   -1625.4141    800.10829   -1404.2887            0            0            0            0            0   -578.98287   -28.347638 
 1000000    272.81258   -260.41791    877.50389    29563.343    -1399.139    324.46778   -1074.6712    -1621.411    801.71595    -1399.139            0            0            0            0            0    -579.4439   -28.435994 
 1005000     290.4001   -37.107243    879.79474    29486.365   -1404.7993    345.38538   -1059.4139      -1623.6    798.23687   -1404.7993            0            0            0            0            0   -579.43611    -28.51023 
 1010000    273.69598    136.87169    888.80076    29187.586   -1415.3268    325.51845   -1089.8084   -1632.4563    796.51075   -1415.3268            0            0            0            0            0   -579.38122   -28.802075 
 1015000    277.72702   -399.22764    862.93226    30062.555   -1359.8729    330.31274   -1029.5602   -1584.8723    804.18961   -1359.8729            0            0            0            0            0    -579.1902   -27.963792 
 1020000     275.4598   -156.08808    894.58921    28998.727   -1454.4789    327.61624   -1126.8626   -1664.9349    789.84536   -1454.4789            0            0            0            0            0   -579.38933   -28.989653 
 1025000    274.23452    443.31499    875.66684    29625.364   -1369.3008    326.15896   -1043.1418   -1595.1386    805.07827   -1369.3008            0            0            0            0            0   -579.24043   -28.376463 
 1030000    287.74527     279.9544     879.9699    29480.495   -1384.1457    342.22789   -1041.9178   -1609.8108    804.96953   -1384.1457            0            0            0            0            0   -579.30448   -28.515906 
 1035000    288.26324   -234.96326    888.90603     29184.13   -1429.6786    342.84393   -1086.8346   -1651.9834    801.40205   -1429.6786            0            0            0            0            0   -579.09715   -28.805486 
 1040000    285.25011   -438.67573    868.53098    29868.766   -1375.9926    339.26028   -1036.7324   -1604.4168    807.71307   -1375.9926            0            0            0            0            0   -579.28888   -28.145222 
 1045000      295.127    310.82206    882.73447    29388.168   -1389.3152     351.0073   -1038.3079   -1611.4006    801.54982   -1389.3152            0            0            0            0            0    -579.4644   -28.605493 
 1050000    293.46269   -530.05874    868.97165    29853.619   -1386.6119    349.02786   -1037.5841   -1604.7204     797.3814   -1386.6119            0            0            0            0            0   -579.27294   -28.159502 
 1055000    285.44776    140.02672    884.21466    29338.971   -1406.6438    339.49536   -1067.1484   -1621.9694      794.677   -1406.6438            0            0            0            0            0   -579.35132    -28.65346 
 1060000    286.52231    177.63488    893.03914    29049.061   -1436.0289    340.77336   -1095.2556   -1652.5781    795.84166   -1436.0289            0            0            0            0            0   -579.29247   -28.939422 
 1065000    275.33747   -463.14088    891.31431    29105.276   -1455.0971    327.47075   -1127.6264   -1669.4082    793.66975   -1455.0971            0            0            0            0            0    -579.3587   -28.883528 
 1070000    284.73172   -63.913721    892.80553    29056.662   -1431.0107    338.64373    -1092.367   -1652.3395    800.80872   -1431.0107            0            0            0            0            0   -579.47996   -28.931851 
 1075000    248.43978     104.5053    871.98096    29750.591   -1358.5622    295.48017    -1063.082   -1585.7682    806.52264   -1358.5622            0            0            0            0            0   -579.31656    -28.25702 
 1080000    283.30733    95.316736    879.97741    29480.244   -1400.7469    336.94965   -1063.7972   -1617.0343    795.83915   -1400.7469            0            0            0            0            0   -579.55176   -28.516149 
 1085000    288.14846   -85.667153    888.57636    29194.957   -1424.7711    342.70742   -1082.0637    -1648.559    803.09537   -1424.7711            0            0            0            0            0    -579.3075   -28.794803 
 1090000    283.44636   -113.02951    881.93601    29414.774   -1399.2944      337.115   -1062.1794   -1623.3483     803.3664   -1399.2944            0            0            0            0            0    -579.3125   -28.579619 
 1095000    273.66317    -373.3574    877.34639     29568.65    -1404.504    325.47943   -1079.0246   -1620.4136    795.35782    -1404.504            0            0            0            0            0   -579.44826   -28.430889 
 1100000    275.35256    311.78704    890.24371    29140.277   -1407.3001    327.48869   -1079.8114   -1631.3471    803.67898   -1407.3001            0            0            0            0            0   -579.63201   -28.848834 
 1105000    257.52823   -87.207788    886.75611    29254.886   -1411.6222    306.28946   -1105.3327   -1632.5366    800.33007   -1411.6222            0            0            0            0            0    -579.4157   -28.735817 
 1110000    269.15071    261.45456    878.17703    29540.682   -1379.6081    320.11256   -1059.4956   -1598.8121    798.41097   -1379.6081            0            0            0            0            0   -579.20701   -28.457807 
 1115000    256.70867    6.2770651    893.84091    29023.004   -1431.8044    305.31472   -1126.4897   -1654.3247    801.70626   -1431.8044            0            0            0            0            0   -579.18599   -28.965404 
 1120000    281.17643   -411.04151    865.99653    29956.181   -1372.3044    334.41528   -1037.8891   -1598.0907     804.8681   -1372.3044            0            0            0            0            0   -579.08181   -28.063091 
 1125000    290.44907   -247.84977    887.36566     29234.79    -1425.902    345.44363   -1080.4584   -1646.5619    800.02587    -1425.902            0            0            0            0            0     -579.366    -28.75557 
 1130000    282.41787   -187.47779    882.86376    29383.864   -1417.8523    335.89177   -1081.9606   -1632.4018    793.69947   -1417.8523            0            0            0            0            0      -579.15   -28.609683 
 1135000    283.19676   -53.688381      884.866    29317.375   -1417.2322    336.81814   -1080.4141   -1630.8739    792.98808   -1417.2322            0            0            0            0            0   -579.34647   -28.674567 
 1140000    274.45767    124.54851    887.33125    29235.924   -1399.4889    326.42437   -1073.0646   -1630.3397     809.9202   -1399.4889            0            0            0            0            0   -579.06948   -28.754454 
 1145000    288.87219    65.850998     887.0179    29246.252   -1415.5183    343.56817   -1071.9501   -1640.8241     804.4334   -1415.5183            0            0            0            0            0   -579.12754     -28.7443 
 1150000    267.67308   -262.96137    875.15908    29642.552   -1393.2948    318.35516   -1074.9396   -1609.1435    795.28608   -1393.2948            0            0            0            0            0   -579.43736   -28.360009 
 1155000    283.90604   -202.92811    878.72245    29522.347   -1410.4835    337.66172   -1072.8218   -1620.9935    789.97384   -1410.4835            0            0            0            0            0   -579.46385   -28.475481 
 1160000     285.4226    384.10242    894.32315    29007.355   -1428.3727    339.46543   -1088.9072   -1644.6403    795.78988   -1428.3727            0            0            0            0            0   -579.52218   -28.981031 
 1165000    275.91349    7.8504256      877.532    29562.396   -1386.9554    328.15583   -1058.7996   -1605.9783    798.48367   -1386.9554            0            0            0            0            0   -579.46078   -28.436904 
 1170000    286.40148   -114.81154    871.18309    29777.838   -1382.0895    340.62965   -1041.4599   -1600.6978    797.93636   -1382.0895            0            0            0            0            0   -579.32805   -28.231164 
 1175000    269.71553     144.2391    877.02563    29579.465   -1381.8398    320.78433   -1061.0554   -1604.8932    802.13107   -1381.8398            0            0            0            0            0   -579.07765   -28.420495 
 1180000    261.88178   -68.790102     886.0407    29278.507   -1412.4899    311.46731   -1101.0226   -1636.3419    803.21978   -1412.4899            0            0            0            0            0   -579.36778   -28.712634 
 1185000    306.39795    50.999538    893.67736    29028.316   -1436.8771    364.41232   -1072.4648   -1653.6636    796.18115   -1436.8771            0            0            0            0            0   -579.39463   -28.960104 
 1190000     274.0127   -730.85568     868.9926    29852.899   -1393.8825    325.89515   -1067.9873   -1613.4587     799.1581   -1393.8825            0            0            0            0            0   -579.58191   -28.160181 
 1195000    269.51816    110.59772    880.64082    29458.035   -1388.6425     320.5496   -1068.0929    -1612.087    802.88583   -1388.6425            0            0            0            0            0   -579.44132   -28.537647 
 1200000    289.00577   -221.87859     875.9474    29615.875   -1397.2215    343.72705   -1053.4944   -1618.6889     800.7296   -1397.2215            0            0            0            0            0   -579.26218   -28.385554 
 1205000    271.74503    221.48766    888.45094    29199.078   -1412.3124     323.1981   -1089.1143   -1631.9477    799.06622   -1412.3124            0            0            0            0            0    -579.4309   -28.790739 
 1210000    273.40263   -95.161929    849.30228    30545.012   -1316.0387    325.16957   -990.86911    -1540.152    803.42323   -1316.0387            0            0            0            0            0   -579.30992   -27.522105 
 1215000    257.37815    10.439641     873.4256    29701.384   -1387.7332    306.11095   -1081.6222   -1604.5471    796.29247   -1387.7332            0            0            0            0            0   -579.47858   -28.303834 
 1220000    274.01983    310.12911    890.50642    29131.681   -1416.1239    325.90362   -1090.2202   -1631.9617    795.21655   -1416.1239            0            0            0            0            0   -579.37874   -28.857348 
 1225000     270.8374   -293.62786     878.9466    29514.818    -1393.626    322.11863   -1071.5074   -1619.0708      804.592    -1393.626            0            0            0            0            0   -579.14724   -28.482745 
 1230000    278.53886   -281.96959    863.35588    30047.804   -1355.2379    331.27831   -1023.9596   -1577.2651    801.39373   -1355.2379            0            0            0            0            0   -579.36661    -27.97752 
 1235000    264.49641    90.876732     881.0759    29443.489   -1401.9483    314.57702   -1087.3713   -1619.2343    796.61711   -1401.9483            0            0            0            0            0   -579.33121   -28.551746 
 1240000    285.47885    283.91346    877.70937    29556.422   -1374.3132    339.53233   -1034.7809   -1599.7423     804.7088   -1374.3132            0            0            0            0            0   -579.27976   -28.442652 
 1245000    295.26596   -254.88186    888.26222    29205.282   -1423.4588    351.17256   -1072.2862   -1639.8155    795.70794   -1423.4588            0            0            0            0            0   -579.35117   -28.784623 
 1250000    284.44467   -15.601132    880.64748    29457.813   -1410.4567    338.30234   -1072.1543    -1624.181    793.07699   -1410.4567            0            0            0            0            0   -579.35269   -28.537863 
 1255000    287.38589   -48.645057    887.99417    29214.098   -1428.1067    341.80046   -1086.3063   -1643.1074    794.32855   -1428.1067            0            0            0            0            0   -579.32792   -28.775937 
 1260000    292.20879    -447.8354    873.72543    29691.191   -1400.1915    347.53654   -1052.6549   -1617.9258    797.14782   -1400.1915            0            0            0            0            0   -579.41343    -28.31355 
 1265000    278.66642    345.71014     888.0227    29213.159   -1410.7231    331.43001   -1079.2931   -1627.8802    796.57904   -1410.7231            0            0            0            0            0   -579.42194   -28.776861 
 1270000    271.07564   -367.19445    878.59284    29526.702   -1402.8545    322.40198   -1080.4525   -1626.4772    803.12908   -1402.8545            0            0            0            0            0   -579.50639   -28.471282 
 1275000    291.12466   -7.0011152    880.26513    29470.608    -1397.745    346.24713   -1051.4978   -1620.1055     801.5039    -1397.745            0            0            0            0            0   -579.14334   -28.525473 
 1280000    289.59901    94.152176    861.13378    30125.341   -1338.1733    344.43262   -993.74072   -1569.9102    810.91999   -1338.1733            0            0            0            0            0   -579.18309   -27.905511 
 1285000    281.76654    4.8119476    889.66313    29159.294   -1426.1105    335.11712   -1090.9934   -1639.6999    792.78958   -1426.1105            0            0            0            0            0   -579.20013    -28.83002 
 1290000    269.02446    25.801009    863.88689    30029.335   -1346.6424    319.96241     -1026.68   -1574.0882    806.75319   -1346.6424            0            0            0            0            0   -579.30744   -27.994727 
 1295000    284.03597    156.28035    889.75377    29156.323   -1420.5544    337.81625   -1082.7381   -1637.5242    796.19099   -1420.5544            0            0            0            0            0   -579.22122   -28.832958 
 1300000    280.58386   -220.29652    882.13832    29408.028   -1421.3307    333.71051   -1087.6202   -1639.0102    796.98676   -1421.3307            0            0            0            0            0   -579.30729   -28.586175 
 1305000    298.64701    116.16546     879.9806    29480.137   -1394.4659     355.1938   -1039.2721   -1611.8875     796.6319   -1394.4659            0            0            0            0            0    -579.2103   -28.516252 
 1310000    271.94277     38.39846    885.80408    29286.328   -1415.8259    323.43329   -1092.3926   -1628.8929     792.2829   -1415.8259            0            0            0            0            0   -579.21592   -28.704966 
 1315000    280.98867    24.352803    898.53118    28871.506   -1443.9544    334.19197   -1109.7624   -1664.2613    799.51794   -1443.9544            0            0            0            0            0   -579.21104   -29.117394 
 1320000    265.40225    552.37875    879.99115    29479.783   -1386.0053    315.65437   -1070.3509   -1601.7267    795.21331   -1386.0053            0            0            0            0            0   -579.49183   -28.516595 
 1325000    278.69393    207.58546     880.8769    29450.141   -1396.2652    331.46273   -1064.8025   -1611.2979     794.3602   -1396.2652            0            0            0            0            0   -579.32749   -28.545298 
 1330000    278.70986   -241.28574    876.10165    29610.661   -1392.3131    331.48168   -1060.8315   -1618.2562    805.38321   -1392.3131            0            0            0            0            0   -579.44018   -28.390553 
 1335000    281.85028   -343.57465    869.90348     29821.64   -1378.7676    335.21672   -1043.5509   -1601.4992    801.99113   -1378.7676            0            0            0            0            0   -579.25958   -28.189698 
 1340000    282.39674   -334.84795    873.73902    29690.729   -1391.5227    335.86665   -1055.6561   -1607.1501    794.83223   -1391.5227            0            0            0            0            0   -579.20479   -28.313991 
 1345000    281.81869    379.40454    894.16101    29012.614   -1419.6678    335.17914   -1084.4886   -1641.4243    800.89398   -1419.6678            0            0            0            0            0   -579.13748   -28.975777 
 1350000    295.57705    33.267164    884.15057    29341.098    -1414.432    351.54256   -1062.8895   -1629.0538    793.98825    -1414.432            0            0            0            0            0   -579.36651   -28.651383 
 1355000    289.43632    147.57804    878.51523     29529.31   -1390.6164    344.23913   -1046.3773   -1606.5105    795.05486   -1390.6164            0            0            0            0            0   -579.16079   -28.468767 
 1360000    297.22338    299.98707     897.4747    28905.493   -1430.9183    353.50061   -1077.4177   -1649.4844    797.61875   -1430.9183            0            0            0            0            0   -579.05266   -29.083158 
 1365000    275.24695   -143.35989    894.39939    29004.882    -1446.855     327.3631   -1119.4919   -1658.2194     790.6228    -1446.855            0            0            0            0            0   -579.25839   -28.983501 
 1370000     296.2432   -202.19379    892.75506    29058.305   -1436.6699    352.33484    -1084.335   -1656.4787    799.13959   -1436.6699            0            0            0            0            0   -579.33082   -28.930216 
 1375000    279.69796   -249.76601    887.76668    29221.584   -1429.0053    332.65687   -1096.3484   -1643.6812    794.23107   -1429.0053            0            0            0            0            0   -579.55518   -28.768565 
 1380000    267.97138   -511.40238    868.35336    29874.876   -1372.8574    318.70994   -1054.1475   -1597.9414    804.10469   -1372.8574            0            0            0            0            0   -579.02078   -28.139466 
 1385000    264.71362   -311.27536     888.8165    29187.069   -1427.3148    314.83534   -1112.4795   -1651.7948    803.85926   -1427.3148            0            0            0            0            0   -579.37922   -28.802585 
 1390000    265.24466    141.32789    887.85887     29218.55    -1413.096    315.46694   -1097.6291   -1636.1296     802.2772    -1413.096            0            0            0            0            0   -579.24361   -28.771552 
 1395000    289.40119    281.18401    880.95393    29447.566   -1393.6069    344.19734   -1049.4095   -1607.8227    793.56581   -1393.6069            0            0            0            0            0   -579.34996   -28.547794 
 1400000    278.22284    203.43963    877.47703    29564.248   -1383.3498    330.90244   -1052.4473   -1601.1691    797.16036   -1383.3498            0            0            0            0            0   -579.34102   -28.435123 
 1405000     285.9023   -380.66401    885.40632    29299.484   -1427.3894    340.03596   -1087.3534   -1646.0946     798.1977   -1427.3894            0            0            0            0            0   -579.49245   -28.692076 
 1410000     266.2296    122.19534    883.41847    29365.413   -1399.3645    316.63837   -1082.7261   -1616.7194    796.89287   -1399.3645            0            0            0            0            0   -579.53797   -28.627659 
 1415000    274.09378   -442.88194    868.72098    29862.234   -1386.7302    325.99157   -1060.7386    -1602.956    795.34216   -1386.7302            0            0            0            0            0   -579.11632   -28.151378 
 1420000    266.83228      208.928    895.62071    28965.329     -1436.99    317.35516   -1119.6348   -1654.8213    797.08011     -1436.99            0            0            0            0            0   -579.24884   -29.023079 
 1425000     254.8285    17.904593    883.86172    29350.687   -1409.4145    303.07854    -1106.336   -1629.6409    799.73458   -1409.4145            0            0            0            0            0   -579.50817   -28.642022 
 1430000    277.76038   -358.98767    870.39009    29804.968   -1386.6931    330.35242   -1056.3407    -1604.101    796.94308   -1386.6931            0            0            0            0            0   -579.53517   -28.205467 
 1435000    289.79575   -13.924108    890.04542    29146.769   -1433.0497    344.66661    -1088.383    -1647.067     793.1782   -1433.0497            0            0            0            0            0   -579.16085   -28.842409 
 1440000    289.17168  -0.13617696    880.77539    29453.535   -1403.1738    343.92438   -1059.2494   -1612.1225    788.34391   -1403.1738            0            0            0            0            0   -579.39521   -28.542008 
 1445000    289.44685   -321.55711    868.69522    29863.119   -1384.6712    344.25165   -1040.4195   -1602.9631    797.45696   -1384.6712            0            0            0            0            0   -579.16498   -28.150544 
 1450000    294.97974   -33.963294    891.54465    29097.756   -1419.0906    350.83215   -1068.2584   -1638.7177    799.01224   -1419.0906            0            0            0            0            0   -579.38517   -28.890992 
 1455000    286.65019   -321.82169    872.47324    29733.804   -1403.2657    340.92546   -1062.3403   -1617.8509    793.87389   -1403.2657            0            0            0            0            0   -579.28869   -28.272972 
 1460000    253.50464   -151.26979    869.23166    29844.689   -1379.1457    301.50402   -1077.6417   -1598.4168    798.41678   -1379.1457            0            0            0            0            0   -579.14571   -28.167927 
 1465000    289.12276    331.69128    898.83545    28861.733   -1449.1656    343.86619   -1105.2995   -1659.6547    789.99745   -1449.1656            0            0            0            0            0   -579.50838   -29.127254 
 1470000    285.64957    158.53461     870.7029     29794.26   -1358.6537    339.73538   -1018.9183   -1579.2316    799.87644   -1358.6537            0            0            0            0            0   -579.29851   -28.215604 
 1475000    278.55488    168.23984    886.00964    29279.533   -1415.5746    331.29736   -1084.2772    -1629.695    793.49564   -1415.5746            0            0            0            0            0   -579.37524   -28.711627 
 1480000    264.65876    234.01801    881.79254     29419.56   -1393.2139     314.7701   -1078.4438   -1610.4091    796.47793   -1393.2139            0            0            0            0            0   -579.28271   -28.574969 
 1485000    303.99836     11.34347    874.74328    29656.643    -1391.868    361.55839   -1030.3096   -1607.6936     795.0191    -1391.868            0            0            0            0            0   -579.19349   -28.346534 
 1490000    280.32846   -208.15328    870.48285    29801.792   -1384.0608    333.40675    -1050.654   -1600.1888    795.53688   -1384.0608            0            0            0            0            0   -579.40883   -28.208473 
 1495000    293.27768    -247.3869    881.22891    29438.377   -1412.9006    348.80781   -1064.0928   -1633.9135    800.25124   -1412.9006            0            0            0            0            0   -579.23834   -28.556705 
 1500000     266.0345   -41.241701    875.48663    29631.462   -1388.5143    316.40633    -1072.108   -1607.8996    798.49753   -1388.5143            0            0            0            0            0   -579.11223   -28.370623 
 1505000    285.26497   -299.83719    879.35849    29500.993   -1415.7613    339.27796   -1076.4834   -1632.1224    795.42209   -1415.7613            0            0            0            0            0   -579.06103   -28.496093 
 1510000    288.04614   -50.837711    883.96141    29347.377   -1413.3535    342.58572   -1070.7678   -1631.5205    797.55594   -1413.3535            0            0            0            0            0   -579.38894   -28.645253 
 1515000    269.89224    364.32327    885.69894    29289.804   -1391.6782     320.9945   -1070.6837   -1616.7916    804.33343   -1391.6782            0            0            0            0            0   -579.22001   -28.701558 
 1520000    264.42027   -569.09232    884.37793    29333.555   -1426.6404    314.48645    -1112.154   -1646.9035     799.4951   -1426.6404            0            0            0            0            0   -579.23201    -28.65875 
 1525000     284.9423    -276.5124    878.05813    29544.683   -1400.4024    338.89419   -1061.5082   -1617.1824    796.37174   -1400.4024            0            0            0            0            0   -579.59173   -28.453954 
 1530000    293.48493   -9.0057911    876.87952    29584.393   -1385.2571    349.05431   -1036.2027    -1599.734    793.91817   -1385.2571            0            0            0            0            0   -579.44127    -28.41576 
 1535000    289.84899    -197.4974      880.042     29478.08   -1412.7585    344.72992   -1068.0286   -1630.2525    796.91587   -1412.7585            0            0            0            0            0   -579.42181   -28.518242 
 1540000    270.09589   -129.81029      888.361    29202.034   -1422.9358    321.23671   -1101.6991   -1640.2832    796.50086   -1422.9358            0            0            0            0            0   -579.15343   -28.787824 
 1545000    291.46298   -10.481787    872.17759    29743.883   -1381.5107    346.64952   -1034.8612   -1596.5153    794.46401   -1381.5107            0            0            0            0            0    -579.4594   -28.263392 
 1550000    286.09645   -43.448978     875.5019    29630.945   -1383.1667    340.26687   -1042.8998   -1602.6485    798.87933   -1383.1667            0            0            0            0            0   -579.39753   -28.371118 
 1555000    290.30866    8.5937727    895.98611    28953.517    -1434.363    345.27664   -1089.0863   -1655.3197    800.24359    -1434.363            0            0            0            0            0    -579.2869    -29.03492 
 1560000    278.03685   -172.51768    884.96121    29314.221   -1425.5564    330.68124   -1094.8751   -1644.9424    798.64324   -1425.5564            0            0            0            0            0   -579.25719   -28.677652 
 1565000    295.21989   -285.75257    874.75079    29656.388   -1392.0425    351.11777   -1040.9247   -1616.0681    803.19976   -1392.0425            0            0            0            0            0   -579.17412   -28.346778 
 1570000    280.21598   -3.3697963    876.45946    29598.572   -1386.6195    333.27298   -1053.3466   -1609.1924    802.12293   -1386.6195            0            0            0            0            0   -579.55008   -28.402148 
 1575000    303.37662    140.97784    883.45928    29364.057   -1409.5699    360.81893    -1048.751   -1626.3094    796.09255   -1409.5699            0            0            0            0            0   -579.35308   -28.628981 
 1580000    278.45715   -20.521514    882.77982    29386.658   -1421.1234    331.18112   -1089.9423   -1636.4274    794.56104   -1421.1234            0            0            0            0            0   -579.25712   -28.606963 
 1585000    275.08027    -877.7895     863.5744    30040.201   -1379.5147    327.16485   -1052.3499   -1607.2449    806.96646   -1379.5147            0            0            0            0            0    -579.2363   -27.984601 
 1590000     271.4795   -106.32736     880.5569    29460.843   -1394.9521     322.8823   -1072.0698   -1620.2095    804.60888   -1394.9521            0            0            0            0            0   -579.35147   -28.534928 
 1595000    300.18136   -424.67185    877.74025    29555.382   -1411.0308    357.01866   -1054.0121   -1629.1892    797.32094   -1411.0308            0            0            0            0            0   -579.16258   -28.443653 
[...]
 4600000     283.0816    72.560039    868.49605    29869.967   -1358.1775    336.68118   -1021.4963   -1577.9306    799.15668   -1358.1775            0            0            0            0            0   -579.40352   -28.144089 
 4605000    267.77202    -23.37414    880.86019    29450.699   -1404.5182    318.47283   -1086.0454   -1619.2242    794.02149   -1404.5182            0            0            0            0            0   -579.31552   -28.544756 
 4610000    299.36726   -197.88267    884.17802    29340.187   -1413.1141    356.05042   -1057.0637    -1635.083    801.28606   -1413.1141            0            0            0            0            0   -579.31714   -28.652272 
 4615000    304.68396   -332.19611     873.3608    29703.587   -1395.6891     362.3738   -1033.3153   -1612.5701    796.19685   -1395.6891            0            0            0            0            0   -579.31589   -28.301734 
 4620000    281.99196    209.22109    884.35631    29334.272   -1400.4068    335.38523   -1065.0216   -1620.2857    799.11269   -1400.4068            0            0            0            0            0   -579.23378    -28.65805 
 4625000    302.47349   -345.98729    877.38643    29567.301    -1400.156    359.74479   -1040.4112   -1624.3683     803.5783    -1400.156            0            0            0            0            0     -579.366   -28.432187 
 4630000    293.33359    292.71928    888.58863    29194.554   -1402.9158    348.87431   -1054.0414   -1627.7466    804.16602   -1402.9158            0            0            0            0            0   -579.33513     -28.7952 
 4635000    276.59949   -385.03922    885.18212    29306.906   -1426.7184    328.97172   -1097.7467   -1648.9545    801.60729   -1426.7184            0            0            0            0            0   -579.37119   -28.684811 
 4640000    281.95426    -382.7874    867.83436    29892.742    -1383.681    335.34039   -1048.3406   -1599.4838    795.37063    -1383.681            0            0            0            0            0   -579.56785   -28.122647 
 4645000    277.94671    66.105033    888.87627    29185.107   -1419.8368    330.57403   -1089.2628   -1634.9248    794.60828   -1419.8368            0            0            0            0            0   -579.52032   -28.804522 
 4650000    280.42005     276.0984    898.95297     28857.96   -1437.4786    333.51568   -1103.9629   -1648.2043    790.11983   -1437.4786            0            0            0            0            0   -579.39413   -29.131062 
 4655000    284.70778   -292.27622    878.74149    29521.707   -1408.3047    338.61527   -1069.6894   -1623.1335    793.95457   -1408.3047            0            0            0            0            0   -579.12572   -28.476099 
 4660000     276.8471   -210.84905    887.30207    29236.885     -1427.01    329.26622   -1097.7438   -1640.8003    792.72757     -1427.01            0            0            0            0            0   -578.93735   -28.753509 
 4665000    296.45596   -265.45751     886.1463    29275.018   -1415.8654    352.58788   -1063.2775   -1635.0433    798.55683   -1415.8654            0            0            0            0            0   -579.37892   -28.716055 
 4670000    286.73713   -74.438485    880.36272    29467.341   -1400.9057    341.02886   -1059.8769   -1615.6956    794.28897   -1400.9057            0            0            0            0            0   -579.49906   -28.528635 
 4675000    276.83361    51.704817    879.47727    29497.009   -1394.2377    329.25017   -1064.9876    -1614.841    800.05985   -1394.2377            0            0            0            0            0   -579.45658   -28.499942 
 4680000    297.22209    300.06657    890.94467    29117.351   -1421.0877    353.49908   -1067.5886   -1636.2555    794.72281   -1421.0877            0            0            0            0            0   -579.55499   -28.871549 
 4685000    273.70373   -399.30515    874.56673    29662.629   -1401.2665    325.52767   -1075.7389   -1620.8617    799.01011   -1401.2665            0            0            0            0            0   -579.41492   -28.340813 
 4690000    271.44884   -537.88361    859.39995    30186.118   -1367.4725    322.84584   -1044.6267   -1581.9653    793.80481   -1367.4725            0            0            0            0            0   -579.31203   -27.849325 
 4695000    267.93564   -370.84514    883.85349     29350.96   -1429.2319    318.66743   -1110.5644   -1643.7438    793.50766   -1429.2319            0            0            0            0            0   -578.99569   -28.641756 
 4700000    270.01272    204.52685    886.31442    29269.465   -1410.4333     321.1378   -1089.2955   -1630.6192    799.32646   -1410.4333            0            0            0            0            0   -579.14064   -28.721503 
 4705000    287.99067    388.88184    896.27795    28944.089   -1432.9835    342.51975   -1090.4637   -1642.4589    788.91582   -1432.9835            0            0            0            0            0   -579.44038   -29.044377 
 4710000    276.77863    305.00715    884.27507    29336.967   -1403.0955    329.18479   -1073.9107   -1619.7111    796.01545   -1403.0955            0            0            0            0            0   -579.39989   -28.655417 
 4715000    258.57791   -648.57081    873.56201    29696.745   -1406.9896    307.53788   -1099.4517   -1623.9787    796.23907   -1406.9896            0            0            0            0            0   -579.24992   -28.308255 
 4720000    276.40828   -420.88018    889.84274    29153.408   -1435.7512    328.74431   -1107.0069   -1654.5469     798.0605   -1435.7512            0            0            0            0            0   -579.26478   -28.835841 
 4725000    271.10411   -100.81526    875.23045    29640.135   -1381.7815    322.43583   -1059.3457   -1607.7773     805.3359   -1381.7815            0            0            0            0            0   -579.34008   -28.362321 
 4730000    265.13414    928.06698    889.42685     29167.04   -1386.2768    315.33549   -1070.9413   -1606.3061    799.35383   -1386.2768            0            0            0            0            0   -579.32448   -28.822363 
 4735000    276.19447    389.49837    882.93541    29381.479   -1390.5411    328.49001   -1062.0511   -1603.3575    791.96296   -1390.5411            0            0            0            0            0   -579.14652   -28.612005 
 4740000    293.04327   -175.42597    880.14063    29474.777   -1402.0686    348.52903   -1053.5395   -1622.2836    799.53402   -1402.0686            0            0            0            0            0     -579.319   -28.521438 
 4745000    265.73519    161.59641    900.34234    28813.427   -1457.3894    316.05035    -1141.339   -1670.2053    792.21663   -1457.3894            0            0            0            0            0   -579.40066   -29.176086 
 4750000    267.05933   -373.16784     878.4953     29529.98   -1414.8544     317.6252   -1097.2292   -1622.4762    787.00053   -1414.8544            0            0            0            0            0   -579.37874   -28.468121 
 4755000    279.52486     606.3354    888.88214    29184.914   -1396.9431      332.451   -1064.4921   -1614.5978     796.8829   -1396.9431            0            0            0            0            0   -579.22826   -28.804712 
 4760000    297.82287    -279.4949     879.3104    29502.606   -1413.2737    354.21361   -1059.0601   -1621.9346    787.90672   -1413.2737            0            0            0            0            0    -579.2458   -28.494534 
 4765000    282.50189   -221.11102    887.88356    29217.737   -1430.5683     335.9917   -1094.5766   -1645.6864    794.34908   -1430.5683            0            0            0            0            0   -579.23098   -28.772352 
 4770000    287.04262    106.25919     882.0241    29411.836   -1388.8023    341.39219   -1047.4101   -1607.2984    797.85871   -1388.8023            0            0            0            0            0   -579.36258   -28.582473 
 4775000    285.04607   -312.35334     879.1234    29508.882   -1411.8669    339.01761   -1072.8493   -1624.2159    791.73211   -1411.8669            0            0            0            0            0   -579.38313   -28.488475 
 4780000    269.28317   -32.336879    889.29255    29171.445   -1426.5004    320.27011   -1106.2303   -1645.7135    798.37554   -1426.5004            0            0            0            0            0   -579.16244   -28.818011 
 4785000    272.75319   -43.528925    877.09095    29577.262   -1399.5441    324.39715    -1075.147   -1613.4265    793.17665   -1399.5441            0            0            0            0            0   -579.29421   -28.422612 
 4790000    271.62232     407.3376    893.31428    29040.114   -1421.7085    323.05216   -1098.6563    -1633.247    791.05454   -1421.7085            0            0            0            0            0   -579.51601   -28.948338 
 4795000    282.19911   -158.43337    870.85014    29789.223    -1379.673     335.6316   -1044.0414   -1598.5121    797.97236    -1379.673            0            0            0            0            0   -579.13328   -28.220375 
 4800000    270.90903    -95.96376    889.33967    29169.899   -1428.3308    322.20381   -1106.1269   -1654.5215    805.62513   -1428.3308            0            0            0            0            0   -579.43439   -28.819538 
 4805000    303.75848    340.90832    890.17691    29142.464   -1405.9666    361.27308   -1044.6935   -1626.5132     799.8867   -1405.9666            0            0            0            0            0   -579.34015   -28.846669 
 4810000    270.49111    -214.5107    895.12881    28981.246   -1448.1488    321.70677    -1126.442   -1667.0864    798.31769   -1448.1488            0            0            0            0            0   -579.38011   -29.007139 
 4815000     279.5571    177.10303    893.96977    29018.821   -1430.8344    332.48934   -1098.3451   -1651.9028    800.35132   -1430.8344            0            0            0            0            0   -579.28293   -28.969579 
 4820000    272.95484   -179.39758     877.1611    29574.896   -1398.3457    324.63699   -1073.7087   -1615.0558    796.12276   -1398.3457            0            0            0            0            0   -579.41265   -28.424885 
 4825000    281.97177   -24.674363    883.69614    29356.186   -1405.1514    335.36121   -1069.7902   -1619.9318     794.0804   -1405.1514            0            0            0            0            0   -579.30006   -28.636657 
 4830000    272.33176    -169.4247    886.17824    29273.963   -1427.9549    323.89592    -1104.059   -1642.0502    793.33387   -1427.9549            0            0            0            0            0   -579.23856   -28.717091 
 4835000    277.21311    241.92712     890.5091    29131.593   -1412.7411    329.70153   -1083.0396   -1642.0761    808.73628   -1412.7411            0            0            0            0            0   -579.40128   -28.857434 
 4840000    293.29878    503.09749    888.85337    29185.859   -1404.8972    348.83292   -1056.0643   -1618.4916    792.93856   -1404.8972            0            0            0            0            0   -579.34417   -28.803779 
 4845000     261.8996   -568.12987    880.35563    29467.578   -1418.9212    311.48852   -1107.4327   -1632.9222    793.55918   -1418.9212            0            0            0            0            0   -579.55819   -28.528406 
 4850000     272.5652    254.21281    886.11678    29275.993    -1403.489    324.17357   -1079.3154   -1623.1666    798.75441    -1403.489            0            0            0            0            0   -579.07674   -28.715099 
 4855000    291.09062   -5.5855857    884.18089    29340.092   -1415.5187    346.20665    -1069.312   -1627.7075    791.55512   -1415.5187            0            0            0            0            0   -579.36631   -28.652365 
 4860000    283.95623    291.33388     896.4701    28937.885   -1436.4456    337.72142   -1098.7242   -1650.3104    793.19986   -1436.4456            0            0            0            0            0   -579.33507   -29.050604 
 4865000    281.50039    284.79461    882.31171    29402.249    -1403.881    334.80058   -1069.0804   -1618.4642    793.84457    -1403.881            0            0            0            0            0   -579.26135   -28.591793 
 4870000    258.13119    355.57966    878.36979      29534.2   -1384.0469    307.00657   -1077.0403   -1604.4503    799.71347   -1384.0469            0            0            0            0            0   -579.31003   -28.464053 
 4875000    259.70945   -305.91294    878.12394    29542.468   -1392.1553    308.88368   -1083.2716   -1616.6305    803.69602   -1392.1553            0            0            0            0            0   -579.22073   -28.456086 
 4880000    286.26963    14.028543    896.07756    28950.561   -1437.4703    340.47285   -1096.9975   -1654.2949    796.02705   -1437.4703            0            0            0            0            0    -579.2025   -29.037884 
 4885000    279.34057   -230.11123    882.16348     29407.19   -1410.3135    332.23181   -1078.0817   -1626.2092    795.30897   -1410.3135            0            0            0            0            0   -579.41328    -28.58699 
 4890000    279.47276   -360.02282     869.0021    29852.573   -1389.3364    332.38903   -1056.9474   -1599.9176    790.02397   -1389.3364            0            0            0            0            0   -579.44277   -28.160488 
 4895000    283.61045    339.87909    870.69545    29794.515    -1362.372    337.31016   -1025.0618   -1578.4583    795.44259    -1362.372            0            0            0            0            0   -579.35633   -28.215362 
 4900000    270.75117    189.19333    902.73179    28737.161    -1452.063    322.01607    -1130.047   -1668.4401    795.77824    -1452.063            0            0            0            0            0   -579.40115   -29.253517 
 4905000    295.37716    471.78086    892.44701    29068.335   -1417.9659    351.30482   -1066.6611   -1641.7294    803.14868   -1417.9659            0            0            0            0            0    -579.3851   -28.920234 
 4910000    302.00027    608.75007    892.44941    29068.257   -1417.0699    359.18198    -1057.888   -1631.4739    793.89952   -1417.0699            0            0            0            0            0   -579.49554   -28.920311 
 4915000    275.79763   -257.30168    880.59242    29459.655   -1403.1184    328.01804   -1075.1003   -1619.0695    795.47656   -1403.1184            0            0            0            0            0   -579.52547   -28.536079 
 4920000    273.02863    -211.7722    867.68127    29898.016   -1369.5156    324.72475   -1044.7909   -1592.4173    802.13493   -1369.5156            0            0            0            0            0   -579.23327   -28.117686 
 4925000    260.81792   -218.65655    879.33742      29501.7   -1396.7528    310.20202   -1086.5508   -1610.9465    793.83998   -1396.7528            0            0            0            0            0    -579.6463    -28.49541 
 4930000    279.98828    666.45854    889.90996    29151.206   -1385.8014    333.00216   -1052.7992   -1614.0049    807.68493   -1385.8014            0            0            0            0            0   -579.48142   -28.838019 
 4935000    268.14244    125.89305    890.24654    29140.185   -1422.4165    318.91339   -1103.5031   -1635.8779    792.77665   -1422.4165            0            0            0            0            0   -579.31522   -28.848926 
 4940000    282.61131   -419.84392    883.38833    29366.415   -1427.0401    336.12184   -1090.9183   -1641.6539    794.16621   -1427.0401            0            0            0            0            0   -579.55241   -28.626682 
 4945000    264.45827    -339.2647     888.1034    29210.505   -1433.7398    314.53164   -1119.2082   -1648.2274    793.93643   -1433.7398            0            0            0            0            0   -579.44889   -28.779476 
 4950000    287.48033    136.95278    883.23553    29371.496   -1403.7159    341.91278   -1061.8031   -1618.1079    793.91373   -1403.7159            0            0            0            0            0   -579.52165    -28.62173 
 4955000    271.54174    273.35856    869.22227    29845.011   -1361.6313    322.95632   -1038.6749   -1577.4621    795.38635   -1361.6313            0            0            0            0            0   -579.55554   -28.167623 
 4960000    278.97421    212.56012    881.65559     29424.13   -1393.1201    331.79608    -1061.324   -1610.0593    796.30922   -1393.1201            0            0            0            0            0   -579.37003   -28.570532 
 4965000    285.29383   -280.69524    878.33298    29535.437   -1402.8532    339.31228   -1063.5409   -1618.6707    795.09426   -1402.8532            0            0            0            0            0   -579.27677   -28.462861 
 4970000    273.45234   -390.76557    873.56543    29696.629   -1403.2363    325.22868   -1078.0077   -1621.1357    797.33469   -1403.2363            0            0            0            0            0   -579.43532   -28.308366 
 4975000    286.23954    16.033313    889.65512    29159.557   -1425.0481    340.43705    -1084.611   -1644.2113    798.67807   -1425.0481            0            0            0            0            0   -579.51485   -28.829761 
 4980000    269.58459    603.67198    900.39997    28811.583   -1446.2617     320.6286   -1125.6331   -1657.8832    791.05291   -1446.2617            0            0            0            0            0   -579.43138   -29.177953 
 4985000    282.27408    -70.49836    884.35811    29334.212   -1421.1632    335.72076   -1085.4424   -1630.8271    788.92071   -1421.1632            0            0            0            0            0   -579.25678   -28.658108 
 4990000    273.02667   -315.87021    864.36854    30012.601   -1368.0623    324.72242   -1043.3399   -1586.9932    798.29859   -1368.0623            0            0            0            0            0    -579.3677   -28.010335 
 4995000    304.03066   -195.39778    894.85035    28990.265   -1446.8117    361.59681   -1085.2149   -1666.1767    798.80563   -1446.8117            0            0            0            0            0   -579.44067   -28.998115 
 5000000    315.97715    141.59496    895.70493    28962.606   -1435.5318    375.80527   -1059.7265   -1656.6073    800.57464   -1435.5318            0            0            0            0            0    -579.4991   -29.025808 
Loop time of 278751 on 1 procs for 5000000 steps with 2400 atoms

Performance: 1.550 ns/day, 15.486 hours/ns, 17.937 timesteps/s
99.7% CPU use with 1 MPI tasks x 1 OpenMP threads

MPI task timing breakdown:
Section |  min time  |  avg time  |  max time  |%varavg| %total
---------------------------------------------------------------
Pair    | 2.5806e+05 | 2.5806e+05 | 2.5806e+05 |   0.0 | 92.58
Bond    | 10.325     | 10.325     | 10.325     |   0.0 |  0.00
Kspace  | 8430.5     | 8430.5     | 8430.5     |   0.0 |  3.02
Neigh   | 7135.9     | 7135.9     | 7135.9     |   0.0 |  2.56
Comm    | 760.49     | 760.49     | 760.49     |   0.0 |  0.27
Output  | 0.072678   | 0.072678   | 0.072678   |   0.0 |  0.00
Modify  | 4194.3     | 4194.3     | 4194.3     |   0.0 |  1.50
Other   |            | 157.6      |            |       |  0.06

Nlocal:        2400.00 ave        2400 max        2400 min
Histogram: 1 0 0 0 0 0 0 0 0 0
Nghost:        19384.0 ave       19384 max       19384 min
Histogram: 1 0 0 0 0 0 0 0 0 0
Neighs:    1.92426e+06 ave 1.92426e+06 max 1.92426e+06 min
Histogram: 1 0 0 0 0 0 0 0 0 0

Total # of neighbors = 1924264
Ave neighs/atom = 801.77667
Ave special neighs/atom = 8.5000000
Neighbor list builds = 75139
Dangerous builds = 0
Total wall time: 94:14:36
