LAMMPS (29 Sep 2021 - Update 2)
OMP_NUM_THREADS environment is not set. Defaulting to 1 thread. (src/comm.cpp:98)
  using 1 OpenMP thread(s) per MPI task
Reading data file ...
  orthogonal box = (-15.466318 -15.466318 -15.466318) to (15.466318 15.466318 15.466318)
  1 by 1 by 1 MPI processor grid
  reading atoms ...
  2400 atoms
  scanning bonds ...
  3 = max bonds/atom
  scanning angles ...
  3 = max angles/atom
  scanning dihedrals ...
  4 = max dihedrals/atom
  reading bonds ...
  2400 bonds
  reading angles ...
  3600 angles
  reading dihedrals ...
  3600 dihedrals
Finding 1-2 1-3 1-4 neighbors ...
  special bond factors lj:    0        0        0       
  special bond factors coul:  0        0        0       
     3 = max # of 1-2 neighbors
     4 = max # of 1-3 neighbors
     8 = max # of 1-4 neighbors
    10 = max # of special neighbors
  special bonds CPU = 0.001 seconds
  read_data CPU = 0.024 seconds
  200 rigid bodies with 2400 atoms
PPPM initialization ...
  using 12-bit tables for long-range coulomb (src/kspace.cpp:340)
  G vector (1/distance) = 0.1428774
  grid = 6 6 6
  stencil order = 5
  estimated absolute RMS force accuracy = 0.0078609937
  estimated relative force accuracy = 2.3673149e-05
  using double precision FFTW3
  3d grid and FFT values/proc = 1331 216
Neighbor list info ...
  update every 1 steps, delay 10 steps, check yes
  max neighbors/atom: 2000, page size: 100000
  master list distance cutoff = 16.655
  ghost atom cutoff = 16.655
  binsize = 8.3275, bins = 4 4 4
  1 neighbor lists, perpetual/occasional/extra = 1 0 0
  (1) pair lj/cut/coul/long, perpetual
      attributes: half, newton on
      pair build: half/bin/newton
      stencil: half/bin/3d
      bin: standard
Setting up Verlet run ...
  Unit style    : real
  Current step  : 0
  Time step     : 1
Per MPI rank memory allocation (min/avg/max) = 29.12 | 29.12 | 29.12 Mbytes
Step Temp E_pair E_mol TotEng Press 
       0    276.56541     12647.25            0    12976.181    98290.876 
    5000    9401.0876    1784.0207            0     12965.14    74270.652 
Loop time of 338.593 on 1 procs for 5000 steps with 2400 atoms

Performance: 1.276 ns/day, 18.811 hours/ns, 14.767 timesteps/s
99.6% CPU use with 1 MPI tasks x 1 OpenMP threads

MPI task timing breakdown:
Section |  min time  |  avg time  |  max time  |%varavg| %total
---------------------------------------------------------------
Pair    | 282.67     | 282.67     | 282.67     |   0.0 | 83.48
Bond    | 0.0048529  | 0.0048529  | 0.0048529  |   0.0 |  0.00
Kspace  | 8.8185     | 8.8185     | 8.8185     |   0.0 |  2.60
Neigh   | 44.513     | 44.513     | 44.513     |   0.0 | 13.15
Comm    | 1.0688     | 1.0688     | 1.0688     |   0.0 |  0.32
Output  | 4.3739e-05 | 4.3739e-05 | 4.3739e-05 |   0.0 |  0.00
Modify  | 1.3856     | 1.3856     | 1.3856     |   0.0 |  0.41
Other   |            | 0.1347     |            |       |  0.04

Nlocal:        2400.00 ave        2400 max        2400 min
Histogram: 1 0 0 0 0 0 0 0 0 0
Nghost:        19090.0 ave       19090 max       19090 min
Histogram: 1 0 0 0 0 0 0 0 0 0
Neighs:    1.88193e+06 ave 1.88193e+06 max 1.88193e+06 min
Histogram: 1 0 0 0 0 0 0 0 0 0

Total # of neighbors = 1881933
Ave neighs/atom = 784.13875
Ave special neighs/atom = 8.5000000
Neighbor list builds = 425
Dangerous builds = 48
  create bodies CPU = 0.001 seconds
  200 rigid bodies with 2400 atoms
  3.8930168 = max distance from body owner to body atom
PPPM initialization ...
  using 12-bit tables for long-range coulomb (src/kspace.cpp:340)
  G vector (1/distance) = 0.1428774
  grid = 6 6 6
  stencil order = 5
  estimated absolute RMS force accuracy = 0.0078609937
  estimated relative force accuracy = 2.3673149e-05
  using double precision FFTW3
  3d grid and FFT values/proc = 1331 216
Setting up Verlet run ...
  Unit style    : real
  Current step  : 5000
  Time step     : 1
Per MPI rank memory allocation (min/avg/max) = 37.01 | 37.01 | 37.01 Mbytes
Step Temp E_pair E_mol TotEng Press Volume 
    5000    9401.0876    1784.0207            0     12965.14    72339.754    29597.212 
 1005000     288.4716   -1418.6973            0   -1075.6056    379.66729    28987.133 
Loop time of 58945.5 on 1 procs for 1000000 steps with 2400 atoms

Performance: 1.466 ns/day, 16.374 hours/ns, 16.965 timesteps/s
100.0% CPU use with 1 MPI tasks x 1 OpenMP threads

MPI task timing breakdown:
Section |  min time  |  avg time  |  max time  |%varavg| %total
---------------------------------------------------------------
Pair    | 54517      | 54517      | 54517      |   0.0 | 92.49
Bond    | 1.9991     | 1.9991     | 1.9991     |   0.0 |  0.00
Kspace  | 1779.8     | 1779.8     | 1779.8     |   0.0 |  3.02
Neigh   | 1501.6     | 1501.6     | 1501.6     |   0.0 |  2.55
Comm    | 167.48     | 167.48     | 167.48     |   0.0 |  0.28
Output  | 3.956e-05  | 3.956e-05  | 3.956e-05  |   0.0 |  0.00
Modify  | 943.84     | 943.84     | 943.84     |   0.0 |  1.60
Other   |            | 33.58      |            |       |  0.06

Nlocal:        2400.00 ave        2400 max        2400 min
Histogram: 1 0 0 0 0 0 0 0 0 0
Nghost:        19260.0 ave       19260 max       19260 min
Histogram: 1 0 0 0 0 0 0 0 0 0
Neighs:    1.92157e+06 ave 1.92157e+06 max 1.92157e+06 min
Histogram: 1 0 0 0 0 0 0 0 0 0

Total # of neighbors = 1921573
Ave neighs/atom = 800.65542
Ave special neighs/atom = 8.5000000
Neighbor list builds = 15217
Dangerous builds = 0
PPPM initialization ...
  using 12-bit tables for long-range coulomb (src/kspace.cpp:340)
  G vector (1/distance) = 0.14332827
  grid = 6 6 6
  stencil order = 5
  estimated absolute RMS force accuracy = 0.0077254233
  estimated relative force accuracy = 2.3264883e-05
  using double precision FFTW3
  3d grid and FFT values/proc = 1331 216
Setting up Verlet run ...
  Unit style    : real
  Current step  : 0
  Time step     : 1
Per MPI rank memory allocation (min/avg/max) = 37.01 | 37.01 | 37.01 Mbytes
Step Temp Press v_dens Volume PotEng KinEng TotEng E_vdwl E_coul E_pair E_bond E_angle E_dihed E_impro E_mol E_long E_tail 
       0     288.4716   -199.11003    894.94703    28987.133   -1418.6868    343.09174    -1075.595   -1639.8241     801.9159   -1418.6868            0            0            0            0            0    -580.7786   -29.001248 
    5000    288.96052   -389.47687     861.5721    30110.015   -1366.0857    343.67323   -1022.4125    -1586.877    801.44632   -1366.0857            0            0            0            0            0   -580.65506   -27.919715 
   10000    280.37263   -16.648513    865.88619    29959.998   -1352.2201    333.45929   -1018.7608   -1578.8615     807.1522   -1352.2201            0            0            0            0            0   -580.51081   -28.059515 
   15000    282.50043     233.8881    889.18053     29175.12   -1413.0871    335.98997   -1077.0971   -1636.8114    804.44039   -1413.0871            0            0            0            0            0   -580.71607   -28.814382 
   20000     289.2673     24.51976    888.48022    29198.116   -1422.4357     344.0381   -1078.3976   -1639.4856     797.7365   -1422.4357            0            0            0            0            0   -580.68663   -28.791687 
   25000    288.46313   -416.19436     878.1527    29541.501    -1407.894    343.08166   -1064.8123   -1627.2525    800.17078    -1407.894            0            0            0            0            0   -580.81222   -28.457018 
   30000    289.88243    114.02909    880.18636    29473.245   -1402.2531     344.7697   -1057.4834    -1612.035    790.42248   -1402.2531            0            0            0            0            0    -580.6406    -28.52292 
   35000    284.42491    -342.0251       875.46    29632.363   -1397.1821    338.27883   -1058.9032   -1612.3632     795.8687   -1397.1821            0            0            0            0            0   -580.68758    -28.36976 
   40000    275.49427   -416.27079    870.65527     29795.89   -1393.4064    327.65724   -1065.7491   -1611.9218    799.31093   -1393.4064            0            0            0            0            0   -580.79551    -28.21406 
   45000    310.36618   -259.79718    877.75471    29554.895   -1401.4847    369.13191   -1032.3528   -1621.5341    800.58265   -1401.4847            0            0            0            0            0   -580.53318   -28.444121 
   50000    295.41444   -475.41971    885.11031    29309.283   -1435.2042    351.34916    -1083.855   -1644.7143    790.10239   -1435.2042            0            0            0            0            0   -580.59224   -28.682484 
   55000    283.96693    124.97018    882.14827    29407.697   -1402.0136    337.73414   -1064.2795   -1620.8196    799.16713   -1402.0136            0            0            0            0            0   -580.36114   -28.586497 
   60000    286.37501    240.94714    864.59749    30004.654   -1342.3018    340.59817   -1001.7037   -1569.0233    807.50414   -1342.3018            0            0            0            0            0   -580.78265   -28.017755 
   65000    281.66202    400.76541    896.36077    28941.415   -1425.6905    334.99281   -1090.6977   -1643.5693    798.28586   -1425.6905            0            0            0            0            0   -580.40707   -29.047061 
   70000    281.24727   -14.329043    883.99274    29346.337   -1402.7956    334.49953   -1068.2961   -1620.6618    798.54453   -1402.7956            0            0            0            0            0   -580.67835   -28.646268 
   75000    298.16208      818.189    874.23019    29674.048   -1355.8165    354.61705   -1001.1994   -1576.7447    801.50282   -1355.8165            0            0            0            0            0   -580.57457   -28.329907 
   80000    283.25531   -351.02739     867.2032    29914.498   -1367.4296    336.88778   -1030.5418   -1590.4635    803.71653   -1367.4296            0            0            0            0            0   -580.68261   -28.102194 
   85000    270.97245   -111.95638    877.27892    29570.924   -1387.4984    322.27925   -1065.2191   -1609.4976    802.58836   -1387.4984            0            0            0            0            0   -580.58917   -28.428703 
   90000    251.56113    301.54337    892.45771    29067.987   -1419.1042    299.19252   -1119.9116   -1638.8113    800.46877   -1419.1042            0            0            0            0            0   -580.76163    -28.92058 
   95000    276.36689   -303.86133    861.83299      30100.9   -1369.7225    328.69509   -1041.0274   -1584.2368    795.30823   -1369.7225            0            0            0            0            0   -580.79393   -27.928169 
  100000    302.15144   -62.738477    877.13456    29575.791   -1397.6787    359.36177    -1038.317   -1617.7931     800.4467   -1397.6787            0            0            0            0            0   -580.33231   -28.424025 
  105000    278.29744   -86.019122    872.60511    29729.311   -1386.8643    330.99117   -1055.8731   -1603.0728    796.72212   -1386.8643            0            0            0            0            0   -580.51364   -28.277246 
  110000    281.01441    699.19337    883.19101    29372.976   -1392.4357    334.22258   -1058.2131   -1600.1132    788.54008   -1392.4357            0            0            0            0            0   -580.86257   -28.620288 
  115000    284.84967   -78.031721    880.68653    29456.507   -1411.2802    338.78403   -1072.4962   -1629.3766    798.92968   -1411.2802            0            0            0            0            0   -580.83332   -28.539128 
  120000    284.92312    235.15853    876.06571    29611.875   -1371.0733    338.87137   -1032.2019    -1592.374    801.85512   -1371.0733            0            0            0            0            0   -580.55444   -28.389388 
  125000    277.92295    257.12866    871.82533    29755.902   -1345.1807    330.54577    -1014.635    -1578.195     813.5695   -1345.1807            0            0            0            0            0   -580.55525   -28.251976 
  130000    284.23553     -32.5234    869.27675    29843.141   -1370.5333    338.05359   -1032.4797   -1594.3222    804.54347   -1370.5333            0            0            0            0            0   -580.75463   -28.169388 
  135000    275.04892   -291.61487    877.76529    29554.539   -1407.7755    327.12756    -1080.648   -1626.7374    799.72392   -1407.7755            0            0            0            0            0   -580.76202   -28.444464 
  140000    293.23992    85.019614    884.85365    29317.785   -1409.6217    348.76291   -1060.8588   -1627.3458    798.52287   -1409.6217            0            0            0            0            0   -580.79874   -28.674166 
  145000    275.05538    31.837525    866.70386    29931.733    -1358.696    327.13525   -1031.5607   -1578.3703    800.32486    -1358.696            0            0            0            0            0   -580.65057   -28.086013 
  150000     273.5412    97.081031    887.02561    29245.997   -1402.6317    325.33437   -1077.2973   -1626.9383    804.95432   -1402.6317            0            0            0            0            0    -580.6477    -28.74455 
  155000    295.60246    361.33405    876.36753    29601.677   -1376.1328    351.57278     -1024.56   -1593.7561    798.42887   -1376.1328            0            0            0            0            0   -580.80555   -28.399169 
  160000    274.59153   -84.521935    863.89837    30028.936   -1352.9928    326.58358   -1026.4092    -1572.622    800.28526   -1352.9928            0            0            0            0            0   -580.65603   -27.995099 
  165000    270.38478    23.925772    882.18049    29406.622   -1404.9575    321.58031   -1083.3772   -1623.3331    798.77013   -1404.9575            0            0            0            0            0   -580.39452   -28.587541 
  170000    281.55612   -817.86512    865.88156    29960.158   -1401.1461    334.86686   -1066.2792   -1615.6805    795.17869   -1401.1461            0            0            0            0            0   -580.64429   -28.059366 
  175000    312.28016   -71.045589    872.80101    29722.638   -1383.5598    371.40829   -1012.1515   -1600.9583     797.8293   -1383.5598            0            0            0            0            0   -580.43081   -28.283594 
  180000    302.15325     265.6068    881.27888    29436.708   -1393.8472    359.36391   -1034.4833   -1615.4261    802.23891   -1393.8472            0            0            0            0            0   -580.65995   -28.558324 
  185000    289.77118   -236.89918    884.82308    29318.797   -1417.2034    344.63738    -1072.566   -1634.2653    797.83683   -1417.2034            0            0            0            0            0   -580.77486   -28.673176 
  190000    280.69706   -387.86306    857.21091    30263.204   -1350.8318    333.84514   -1016.9866   -1570.0848    799.94498   -1350.8318            0            0            0            0            0   -580.69197   -27.778388 
  195000    279.29807    97.828069    864.11094    30021.549   -1339.7503    332.18126    -1007.569   -1562.9021    803.79077   -1339.7503            0            0            0            0            0   -580.63896   -28.001988 
  200000    288.84102    252.79919    864.73706    29999.811   -1349.0276     343.5311   -1005.4965   -1572.4232    803.91636   -1349.0276            0            0            0            0            0   -580.52072   -28.022277 
  205000    283.25792   -282.97775    872.45942    29734.275   -1382.3107    336.89088   -1045.4198   -1603.1513    801.39671   -1382.3107            0            0            0            0            0   -580.55607   -28.272525 
  210000    287.96778    323.85675    874.66896    29659.162   -1376.5728    342.49252   -1034.0803   -1598.3248    802.40464   -1376.5728            0            0            0            0            0   -580.65271   -28.344126 
  215000    284.76329   -416.40696    874.59419    29661.698   -1392.5131    338.68129   -1053.8318   -1615.3491    803.58147   -1392.5131            0            0            0            0            0    -580.7455   -28.341703 
  220000    290.26147   -36.345262    877.15038    29575.258   -1402.0321    345.22051   -1056.8116   -1615.1075    793.67568   -1402.0321            0            0            0            0            0   -580.60035   -28.424538 
  225000    277.11355    243.39115    869.26598    29843.511   -1353.9155    329.58312   -1024.3324   -1575.4755    802.09351   -1353.9155            0            0            0            0            0   -580.53353   -28.169039 
  230000    280.89244    221.55809    877.41612      29566.3   -1378.8136    334.07752   -1044.7361   -1596.3083     798.1826   -1378.8136            0            0            0            0            0   -580.68795   -28.433149 
  235000     273.0522   -413.00573    860.02287    30164.255   -1359.2908    324.75279    -1034.538   -1576.6412    797.99865   -1359.2908            0            0            0            0            0   -580.64824   -27.869511 
  240000    271.67347   -414.25818    870.91343    29787.058   -1390.8701      323.113   -1067.7571    -1603.515    793.31807   -1390.8701            0            0            0            0            0   -580.67317   -28.222426 
  245000    273.46283   -82.033653    877.97986    29547.316   -1395.3904    325.24116   -1070.1492   -1615.7001     800.9178   -1395.3904            0            0            0            0            0   -580.60806   -28.451417 
  250000    274.60579    -160.2211    875.18317    29641.736   -1392.5426    326.60054    -1065.942   -1609.9609    797.92288   -1392.5426            0            0            0            0            0   -580.50456   -28.360789 
  255000    258.42875   -14.250073     875.8303    29619.835   -1388.6388    307.36047   -1081.2783   -1612.1655    804.39943   -1388.6388            0            0            0            0            0    -580.8727    -28.38176 
  260000    270.55021   -286.18722    871.57856    29764.326   -1371.9998    321.77706   -1050.2227   -1597.2557    805.95796   -1371.9998            0            0            0            0            0   -580.70206    -28.24398 
  265000    290.03305   -117.00505    871.44939    29768.738   -1378.3712    344.94884   -1033.4224   -1600.5953    802.72267   -1378.3712            0            0            0            0            0    -580.4986   -28.239794 
  270000    279.60819   -30.322661    877.39193    29567.115   -1402.5717    332.55011   -1070.0216   -1611.7373    789.84217   -1402.5717            0            0            0            0            0   -580.67659   -28.432365 
  275000    279.43018   -12.535967    889.42094    29167.234   -1425.5003    332.33838    -1093.162   -1645.6492    800.96147   -1425.5003            0            0            0            0            0   -580.81263   -28.822172 
  280000     305.7893    181.22876    889.87077     29152.49   -1421.6338    363.68843   -1057.9454   -1637.1417     796.1727   -1421.6338            0            0            0            0            0   -580.66484   -28.836749 
  285000    269.39884   -125.43986    884.77477    29320.398   -1417.1431    320.40768   -1096.7354   -1634.0573    797.71954   -1417.1431            0            0            0            0            0   -580.80528    -28.67161 
  290000    279.02513     155.5367     869.3555    29840.438   -1355.5373    331.85665   -1023.6807   -1585.1823    810.11048   -1355.5373            0            0            0            0            0   -580.46551    -28.17194 
  295000    265.92983    32.504241    875.66498    29625.427   -1370.6401    316.28184   -1054.3583   -1595.5635    805.61754   -1370.6401            0            0            0            0            0   -580.69415   -28.376403 
  300000    265.48541    106.28938    879.02861    29512.064   -1384.7317    315.75326   -1068.9784   -1610.0758    806.07178   -1384.7317            0            0            0            0            0   -580.72763   -28.485403 
  305000     295.1052    66.609892    868.08901    29883.973   -1356.1641    350.98136   -1005.1827   -1575.8117    800.40601   -1356.1641            0            0            0            0            0   -580.75841   -28.130899 
  310000     286.8651   -97.417818    876.49905    29597.235   -1388.6752    341.18105   -1047.4941   -1610.8655    802.81594   -1388.6752            0            0            0            0            0   -580.62561   -28.403431 
  315000    278.63836    148.57771    878.11061    29542.917   -1383.9805    331.39664   -1052.5839   -1601.3419    797.94483   -1383.9805            0            0            0            0            0   -580.58347   -28.455655 
  320000    281.92218   -159.84704    870.23124    29810.408   -1381.7642    335.30223   -1046.4619   -1597.7458    796.73425   -1381.7642            0            0            0            0            0   -580.75257   -28.200319 
  325000    275.62948    247.90693    881.76327    29420.537   -1387.7425    327.81805   -1059.9245   -1608.1595    801.05491   -1387.7425            0            0            0            0            0   -580.63797   -28.574021 
  330000    292.39621    414.37598      886.149    29274.928   -1390.6699    347.75945   -1042.9105   -1613.3651     803.2948   -1390.6699            0            0            0            0            0    -580.5996   -28.716143 
  335000    290.81441    570.45733    879.91534    29482.323   -1379.3656    345.87814   -1033.4874   -1599.4234    800.82803   -1379.3656            0            0            0            0            0   -580.77019   -28.514138 
  340000    288.17866    355.64786    888.15422    29208.833   -1413.1963    342.74333    -1070.453   -1630.3584    797.80395   -1413.1963            0            0            0            0            0   -580.64191   -28.781123 
  345000     289.9175    -70.52586    892.47268    29067.499   -1430.8939    344.81141   -1086.0825    -1650.115    800.09298   -1430.8939            0            0            0            0            0   -580.87193   -28.921065 
  350000    295.19911    41.063258    884.76165    29320.833   -1406.8923    351.09305   -1055.7992   -1630.5307    804.37238   -1406.8923            0            0            0            0            0   -580.73393   -28.671185 
  355000    260.93907    -145.3912    865.99733    29956.153   -1371.1335    310.34611   -1060.7874   -1588.2919    798.03192   -1371.1335            0            0            0            0            0   -580.87345   -28.063117 
  360000    304.53826    597.23834    891.90047    29086.148   -1406.5894    362.20052   -1044.3889   -1618.8786    793.08007   -1406.5894            0            0            0            0            0    -580.7909   -28.902522 
  365000    251.19418   -111.68862    876.53032    29596.179   -1402.1715    298.75609   -1103.4154   -1617.6594    796.31497   -1402.1715            0            0            0            0            0   -580.82702   -28.404444 
  370000    276.55102    106.07741    872.03679    29748.686   -1379.6737    328.91407   -1050.7596   -1599.1165    799.60209   -1379.6737            0            0            0            0            0   -580.15928   -28.258829 
  375000    311.13428    397.45795    876.02355    29613.301    -1364.484    370.04544   -994.43855   -1585.4745    801.73441    -1364.484            0            0            0            0            0   -580.74387   -28.388022 
  380000    320.53789   -249.15985     884.4513    29331.122   -1413.1957    381.22956   -1031.9661   -1636.2236    803.82605   -1413.1957            0            0            0            0            0   -580.79815   -28.661128 
  385000    290.74342     396.8609    877.79934    29553.393   -1379.3245    345.79371   -1033.5308   -1596.8376    798.36002   -1379.3245            0            0            0            0            0   -580.84697   -28.445568 
  390000    288.39817   -507.74149    871.53794    29765.714    -1389.071     343.0044   -1046.0666   -1609.8532    801.73649    -1389.071            0            0            0            0            0   -580.95435   -28.242663 
  395000    285.85697   -248.62673    876.56581    29594.981   -1396.8511    339.98204   -1056.8691   -1611.6668    795.34171   -1396.8511            0            0            0            0            0   -580.52608   -28.405594 
  400000    293.99714   -119.07209    878.36556    29534.342   -1394.9761    349.66351   -1045.3126   -1610.3731    796.25493   -1394.9761            0            0            0            0            0   -580.85796   -28.463916 
  405000    271.23487   -294.62321    873.31527    29705.136   -1399.7026    322.59135   -1077.1112   -1610.7106    791.70429   -1399.7026            0            0            0            0            0   -580.69624   -28.300259 
  410000    285.15002    188.24353    874.62791    29660.554   -1375.5119    339.14124   -1036.3706   -1589.8445    794.98906   -1375.5119            0            0            0            0            0   -580.65641   -28.342796 
  415000    277.78664    400.93799    890.50362    29131.772   -1413.0391    330.38366   -1082.6554   -1628.7164    796.59616   -1413.0391            0            0            0            0            0   -580.91887   -28.857257 
  420000    291.44235    193.58811    881.92415     29415.17   -1396.6449    346.62498   -1050.0199   -1615.4289     799.4637   -1396.6449            0            0            0            0            0   -580.67973   -28.579234 
  425000    288.54636   -75.579949    882.88144    29383.276   -1407.5635    343.18066   -1064.3828   -1628.2988    801.30748   -1407.5635            0            0            0            0            0   -580.57209   -28.610256 
  430000    284.07454     426.8142    884.31144    29335.761   -1393.5409    337.86213   -1055.6787   -1609.4634    796.67251   -1393.5409            0            0            0            0            0   -580.74998   -28.656596 
  435000    277.02004    171.93173    874.19864    29675.119   -1373.5253     329.4719   -1044.0534   -1595.9028    803.00791   -1373.5253            0            0            0            0            0   -580.63048   -28.328885 
  440000    279.92834    80.623086    872.96631     29717.01   -1380.7496    332.93087   -1047.8187   -1596.3484    796.19424   -1380.7496            0            0            0            0            0   -580.59541   -28.288951 
  445000    284.03043   -203.79477    876.87053    29584.696   -1387.6334    337.80967   -1049.8238   -1612.6125    805.52962   -1387.6334            0            0            0            0            0    -580.5506   -28.415469 
  450000    263.77887   -160.34301      881.248    29437.739   -1402.7628    313.72361   -1089.0392    -1622.145    800.05937   -1402.7628            0            0            0            0            0   -580.67716   -28.557323 
  455000    268.98817    102.46623     877.6548     29558.26   -1381.6181    319.91925   -1061.6988   -1606.7942    805.64646   -1381.6181            0            0            0            0            0   -580.47035   -28.440884 
  460000    269.00155    315.36527    877.43129    29565.789   -1372.6336    319.93516   -1052.6985   -1601.9042    809.85447   -1372.6336            0            0            0            0            0   -580.58388   -28.433641 
  465000    285.03908    31.191522    873.71407    29691.577   -1387.2325     339.0093   -1048.2232   -1606.7525    800.20977   -1387.2325            0            0            0            0            0   -580.68971   -28.313182 
  470000    282.85948   -301.38846    888.00799    29213.643   -1422.4613    336.41701   -1086.0443   -1649.6971    808.09499   -1422.4613            0            0            0            0            0   -580.85923   -28.776384 
  475000    299.26275   -547.26305    868.98784    29853.063   -1392.3173    355.92612   -1036.3912   -1610.5671    798.99472   -1392.3173            0            0            0            0            0   -580.74492   -28.160026 
  480000    265.71385    467.41812    888.91285    29183.905   -1399.6044    316.02497   -1083.5794   -1616.4307    797.49862   -1399.6044            0            0            0            0            0   -580.67237   -28.805707 
  485000    280.16968    128.58596    887.87209    29218.115   -1417.7268    333.21791   -1084.5089   -1637.3914    800.53261   -1417.7268            0            0            0            0            0   -580.86801   -28.771981 
  490000    300.09161    251.80428    888.06779    29211.676   -1420.1711    356.91192   -1063.2592   -1631.9104    792.39553   -1420.1711            0            0            0            0            0   -580.65625   -28.778323 
  495000    291.66797   -401.63614    883.93075    29348.395   -1423.2411    346.89332   -1076.3478   -1642.5625    800.17267   -1423.2411            0            0            0            0            0   -580.85132    -28.64426 
  500000    280.08517    152.66067    898.69158    28866.353   -1452.2809     333.1174   -1119.1635   -1664.9106    793.39433   -1452.2809            0            0            0            0            0   -580.76462   -29.122592 
  505000    274.69223    -542.2401    866.64559    29933.745   -1383.6514    326.70334   -1056.9481   -1601.6559    798.63333   -1383.6514            0            0            0            0            0   -580.62881   -28.084124 
  510000    297.88849     233.6126    867.97983    29887.732   -1346.8859    354.29165   -992.59428   -1573.2026    806.65184   -1346.8859            0            0            0            0            0   -580.33516   -28.127361 
  515000    289.22304   -267.04879    875.53936    29629.677   -1396.6146    343.98545   -1052.6291   -1619.6616    803.70527   -1396.6146            0            0            0            0            0   -580.65821   -28.372332 
  520000    278.62015    352.75144    881.52566    29428.467   -1399.9281    331.37499   -1068.5532    -1614.514    795.55757   -1399.9281            0            0            0            0            0   -580.97168   -28.566321 
  525000    273.67162    75.076126    882.96117    29380.622   -1406.0522    325.48949   -1080.5627   -1622.8898    797.59242   -1406.0522            0            0            0            0            0   -580.75481    -28.61284 
  530000    279.39704     11.22739    859.34206    30188.152   -1334.4723    332.29897   -1002.1734   -1557.3581    803.66924   -1334.4723            0            0            0            0            0   -580.78353   -27.847449 
  535000      284.083   -2.4974518     890.5114    29131.518   -1436.4033    337.87219   -1098.5311   -1650.6211    794.90579   -1436.4033            0            0            0            0            0   -580.68802   -28.857509 
  540000     276.8794   -10.263431    879.61126    29492.515   -1407.0516    329.30464   -1077.7469   -1619.5827    793.25252   -1407.0516            0            0            0            0            0   -580.72138   -28.504284 
  545000    275.62827    357.44157    882.95455    29380.843    -1397.662    327.81662   -1069.8454   -1612.4222    795.48293    -1397.662            0            0            0            0            0    -580.7227   -28.612625 
  550000    297.50003   -55.325721    871.10661    29780.452   -1386.6762    353.82964   -1032.8466   -1607.7472    802.01681   -1386.6762            0            0            0            0            0    -580.9459   -28.228686 
  555000    264.37854    273.27332    890.25884    29139.782   -1417.9561    314.43682   -1103.5193   -1629.9895     792.7897   -1417.9561            0            0            0            0            0   -580.75635   -28.849325 
  560000      291.649   -115.81338    873.82746    29687.724   -1384.4095    346.87075   -1037.5388   -1607.5694    803.66144   -1384.4095            0            0            0            0            0   -580.50159   -28.316857 
  565000    278.52043      322.607    879.63058    29491.868   -1391.4625    331.25638   -1060.2061   -1601.3133    790.47871   -1391.4625            0            0            0            0            0    -580.6279    -28.50491 
  570000    284.28868   -393.42041    875.44908    29632.733   -1399.4205    338.11681   -1061.3037    -1615.291    796.49529   -1399.4205            0            0            0            0            0   -580.62477   -28.369406 
  575000    278.37006     16.15398    883.44554    29364.514   -1411.6876    331.07754   -1080.6101   -1629.3009    798.53399   -1411.6876            0            0            0            0            0   -580.92071   -28.628536 
  580000    285.27232   -293.11543    882.88491     29383.16   -1412.0068     339.2867   -1072.7201     -1637.15    805.78873   -1412.0068            0            0            0            0            0   -580.64547   -28.610368 
  585000    287.78669   -158.89858    872.72592    29725.196   -1381.7139    342.27714   -1039.4367   -1604.1915     803.1238   -1381.7139            0            0            0            0            0   -580.64613   -28.281161 
  590000    269.24858   -497.61638    864.34054    30013.574   -1375.2736    320.22896   -1055.0446   -1594.5164    799.79712   -1375.2736            0            0            0            0            0   -580.55432   -28.009428 
  595000    279.13709   -25.436114    871.20656    29777.035   -1377.4498    331.98981     -1045.46   -1601.1855    804.54931   -1377.4498            0            0            0            0            0   -580.81362   -28.231925 
  600000    288.73282   -553.91222    893.17039    29044.793   -1452.6785    343.40242    -1109.276   -1668.6616    796.77469   -1452.6785            0            0            0            0            0   -580.79154   -28.943675 
  605000    272.09933    137.85648    892.23013    29075.401   -1424.6152    323.61948   -1100.9957   -1650.5608    806.39038   -1424.6152            0            0            0            0            0   -580.44476   -28.913205 
  610000    263.96171   -114.67374    878.02023    29545.958   -1381.7755    313.94107   -1067.8344   -1614.9434    813.95519   -1381.7755            0            0            0            0            0   -580.78731   -28.452726 
  615000    264.86472    565.86735    888.65662     29192.32   -1401.3446    315.01506   -1086.3295   -1619.2697    798.23761   -1401.3446            0            0            0            0            0   -580.31245   -28.797404 
  620000    274.57379    20.586509    874.16796    29676.161   -1382.7681    326.56247   -1056.2056   -1601.6465    799.60743   -1382.7681            0            0            0            0            0   -580.72897   -28.327891 
  625000    275.43989     186.9388    878.95454    29514.551   -1386.4798    327.59256   -1058.8873   -1607.5388     801.8873   -1386.4798            0            0            0            0            0   -580.82835   -28.483002 
  630000    291.63107   -369.51403    873.48396    29699.399   -1384.3508    346.84943   -1037.5014   -1612.0684    808.43342   -1384.3508            0            0            0            0            0   -580.71583   -28.305725 
  635000    270.25193    251.53113    876.56827    29594.898   -1387.6392     321.4223   -1066.2169   -1603.5163    796.51497   -1387.6392            0            0            0            0            0   -580.63786   -28.405674 
  640000    269.33821   -479.80229    868.13852    29882.269   -1371.5806    320.33557    -1051.245   -1597.5799    806.60576   -1371.5806            0            0            0            0            0   -580.60642   -28.132504 
  645000    307.77969    700.63502     873.8136    29688.195   -1357.8559    366.05569   -991.80021   -1576.1777    799.17294   -1357.8559            0            0            0            0            0   -580.85109   -28.316408 
  650000    292.28512    48.625243    875.17988    29641.848   -1390.0789    347.62733   -1042.4515   -1607.5816    798.20734   -1390.0789            0            0            0            0            0    -580.7046   -28.360683 
  655000     273.3557    338.74375    890.85032    29120.435   -1417.5818    325.11375   -1092.4681   -1640.8845    803.84528   -1417.5818            0            0            0            0            0   -580.54261   -28.868492 
  660000    279.61686    101.10752    876.07061     29611.71   -1390.4348    332.56042   -1057.8744   -1605.4486    795.77129   -1390.4348            0            0            0            0            0    -580.7575   -28.389547 
  665000    270.98875    -257.5931    873.61652    29694.892      -1390.1    322.29863   -1067.8013   -1604.6272    795.20368      -1390.1            0            0            0            0            0   -580.67651   -28.310021 
  670000    268.38834    45.095224    871.11488    29780.169   -1379.0813    319.20585   -1059.8754   -1598.1486    799.73051   -1379.0813            0            0            0            0            0   -580.66317   -28.228954 
  675000    280.04588    388.40012    877.55741     29561.54   -1381.3911    333.07066   -1048.3205   -1605.4903    804.73691   -1381.3911            0            0            0            0            0   -580.63777   -28.437728 
  680000    287.51959    56.201665      877.001    29580.295   -1390.3263    341.95947   -1048.3669   -1608.1407    798.58136   -1390.3263            0            0            0            0            0   -580.76703   -28.419697 
  685000    297.09619   -11.623899    871.05157    29782.334   -1365.7444    353.34934   -1012.3951   -1596.5831    811.62559   -1365.7444            0            0            0            0            0   -580.78687   -28.226903 
  690000    277.83341   -483.73375    868.35533    29874.808   -1379.1018    330.43927   -1048.6626   -1599.9189    801.34027   -1379.1018            0            0            0            0            0   -580.52324    -28.13953 
  695000    267.19816    414.56058    886.86381    29251.333   -1401.0426    317.79032   -1083.2523   -1618.9522    798.50139   -1401.0426            0            0            0            0            0   -580.59177   -28.739307 
  700000    292.98051   -255.87778    881.48197    29429.926   -1404.6372    348.45438   -1056.1828   -1627.3766    803.45935   -1404.6372            0            0            0            0            0   -580.71991   -28.564905 
  705000    254.59888    606.67464    897.68133     28898.84   -1429.9797    302.80545   -1127.1743   -1644.4508    795.22523   -1429.9797            0            0            0            0            0   -580.75413   -29.089854 
  710000    308.14681    392.49366    872.18791    29743.532   -1363.7578    366.49232   -997.26546   -1583.3989    800.49085   -1363.7578            0            0            0            0            0   -580.84977   -28.263726 
  715000    281.59435   -14.585396    885.87648    29283.934   -1414.6001    334.91233   -1079.6877   -1635.7131    802.04053   -1414.6001            0            0            0            0            0   -580.92752   -28.707312 
  720000    257.09483    734.59059    899.48991    28840.733   -1412.9681    305.77399   -1107.1941   -1630.2648    797.76581   -1412.9681            0            0            0            0            0   -580.46915   -29.148463 
  725000    295.78909   -319.26076    886.02259    29279.105   -1427.3729    351.79475   -1075.5782   -1641.0135    794.25772   -1427.3729            0            0            0            0            0   -580.61712   -28.712047 
  730000    266.73571    -533.0697    882.39029    29399.631   -1425.3711     317.2403   -1108.1308   -1642.5629    798.00952   -1425.3711            0            0            0            0            0   -580.81772    -28.59434 
  735000    258.64734   -164.76903    872.66623    29727.229   -1382.9691    307.62046   -1075.3486   -1602.1879    800.16511   -1382.9691            0            0            0            0            0   -580.94632   -28.279226 
  740000    285.28401    73.796354    888.73307    29189.809    -1426.754     339.3006   -1087.4534   -1645.7647    799.52876    -1426.754            0            0            0            0            0   -580.51802   -28.799881 
  745000    259.68318   -235.63281    861.65918    30106.972   -1343.6747    308.85243   -1034.8222   -1571.3324    808.34571   -1343.6747            0            0            0            0            0   -580.68794   -27.922537 
  750000    263.98084    326.85411    879.23204    29505.236   -1389.4207    313.96382   -1075.4568   -1612.7708    803.80216   -1389.4207            0            0            0            0            0   -580.45198   -28.491995 
  755000    301.43588    112.52927     883.4928    29362.943   -1406.8993    358.51072   -1048.3885   -1624.7378    798.53197   -1406.8993            0            0            0            0            0   -580.69341   -28.630067 
  760000    290.23373   -165.01133    863.52049    30042.077   -1359.4085    345.18751   -1014.2209    -1587.066    808.44646   -1359.4085            0            0            0            0            0   -580.78895   -27.982854 
  765000    277.11471   -480.94839    866.12299    29951.807   -1383.7499     329.5845   -1054.1654     -1598.54    795.28698   -1383.7499            0            0            0            0            0   -580.49685   -28.067189 
  770000    264.23222    11.270388    870.79193    29791.214   -1372.9183     314.2628   -1058.6555   -1596.7254    804.38065   -1372.9183            0            0            0            0            0   -580.57357   -28.218489 
  775000     276.6837   -287.09715    857.19893    30263.627   -1352.1469    329.07188    -1023.075   -1571.2688    799.63413   -1352.1469            0            0            0            0            0   -580.51225      -27.778 
  780000    284.04245   -100.01745    872.21257    29742.691   -1379.4501    337.82396   -1041.6262   -1605.7064    806.98948   -1379.4501            0            0            0            0            0   -580.73324   -28.264525 
  785000    280.63177    109.64222    871.88429    29753.889    -1362.314    333.76749   -1028.5465   -1589.2211    807.75808    -1362.314            0            0            0            0            0   -580.85101   -28.253887 
  790000      274.511    346.04523    878.54115    29528.439   -1388.9606    326.48779   -1062.4728   -1602.3302    794.07329   -1388.9606            0            0            0            0            0    -580.7037   -28.469606 
  795000    290.68832   -267.79118    866.96968    29922.556   -1367.1541    345.72818   -1021.4259   -1589.9746    803.32227   -1367.1541            0            0            0            0            0   -580.50173   -28.094627 
  800000    271.89454    85.469943    893.31616    29040.053   -1427.2622    323.37592   -1103.8863     -1646.59    799.95332   -1427.2622            0            0            0            0            0   -580.62557   -28.948399 
  805000    296.11167   -411.30224    884.41031    29332.481   -1426.3501     352.1784   -1074.1717   -1645.1777    799.49973   -1426.3501            0            0            0            0            0   -580.67219     -28.6598 
  810000    273.84191   -569.19055    871.42088    29769.712   -1402.1754    325.69201   -1076.4834   -1615.6673    794.12846   -1402.1754            0            0            0            0            0   -580.63654    -28.23887 
  815000    291.82398    396.52902    881.31483    29435.507   -1392.4727    347.07887   -1045.3939   -1607.5074    795.71179   -1392.4727            0            0            0            0            0   -580.67708   -28.559489 
  820000    251.46599   -306.52717    877.43921    29565.523   -1394.2385    299.07937   -1095.1592   -1625.7511    812.49097   -1394.2385            0            0            0            0            0   -580.97839   -28.433897 
  825000    282.04766    442.82493    891.75341    29090.944   -1420.8298    335.45147   -1085.3783   -1631.4703    791.46434   -1420.8298            0            0            0            0            0   -580.82378   -28.897757 
  830000    267.39815   -319.38225    881.29852    29436.051   -1423.8187    318.02817   -1105.7905   -1630.0611    786.99092   -1423.8187            0            0            0            0            0   -580.74855   -28.558961 
  835000    306.74533    371.28954    900.03903    28823.137   -1436.0965    364.82548    -1071.271   -1656.6667    801.39408   -1436.0965            0            0            0            0            0   -580.82385   -29.166257 
  840000    284.01923   -196.42553     868.8688    29857.153   -1381.9512    337.79634   -1044.1549   -1599.8448    798.33025   -1381.9512            0            0            0            0            0   -580.43671   -28.156169 
  845000    276.94136   -312.10567    876.11938    29610.062   -1407.4698    329.37833   -1078.0915   -1623.4616    796.88949   -1407.4698            0            0            0            0            0   -580.89771   -28.391128 
  850000    271.04378     128.1819    890.25075    29140.047   -1427.5522    322.36408   -1105.1882    -1644.591    797.69435   -1427.5522            0            0            0            0            0   -580.65558   -28.849062 
  855000    282.81927    273.77031    870.65743    29795.816   -1362.6482    336.36918    -1026.279    -1585.912    804.07287   -1362.6482            0            0            0            0            0   -580.80904    -28.21413 
  860000     272.8377    259.26194    872.60026    29729.476   -1364.3991    324.49767   -1039.9015   -1587.5541    803.63484   -1364.3991            0            0            0            0            0   -580.47989   -28.277089 
  865000    272.97415    -67.98969     857.3871    30256.985    -1340.753    324.65995    -1016.093    -1561.399    801.34867    -1340.753            0            0            0            0            0   -580.70267   -27.784098 
  870000    281.16632   -298.54981    879.11989        29509   -1402.1243    334.40326    -1067.721   -1625.5205    804.19021   -1402.1243            0            0            0            0            0   -580.79403   -28.488361 
  875000    275.50331   -126.54928    878.37748    29533.941    -1398.874    327.66799    -1071.206   -1618.8482    800.50996    -1398.874            0            0            0            0            0   -580.53579   -28.464303 
  880000    284.96688    8.5983717    862.60079    30074.107   -1356.3902    338.92342   -1017.4668   -1577.5134    801.92181   -1356.3902            0            0            0            0            0   -580.79862    -27.95305 
  885000    278.60657    394.61547    871.32794    29772.887   -1355.4327    331.35883   -1024.0739   -1580.0506    805.40939   -1355.4327            0            0            0            0            0    -580.7915   -28.235858 
  890000    289.79213     46.42427    871.13305    29779.548   -1375.8521     344.6623   -1031.1898   -1600.7941    805.64953   -1375.8521            0            0            0            0            0   -580.70748   -28.229543 
  895000    285.16125    35.221219    877.24478    29572.075   -1391.1682     339.1546   -1052.0136   -1612.9082    802.48403   -1391.1682            0            0            0            0            0   -580.74401   -28.427597 
  900000    265.14199     89.17112    873.40247     29702.17   -1386.0049    315.34482   -1070.6601   -1602.2114    796.87556   -1386.0049            0            0            0            0            0   -580.66904   -28.303085 
  905000    290.78366    18.309588    881.07745    29443.437    -1400.731    345.84157   -1054.8894   -1622.5521    802.38227    -1400.731            0            0            0            0            0   -580.56116   -28.551796 
  910000    278.39498   -181.73896    878.67916    29523.801   -1396.0848    331.10718   -1064.9776   -1621.2575    805.62197   -1396.0848            0            0            0            0            0   -580.44925   -28.474079 
  915000    279.91246    -11.25168    850.42146    30504.814   -1316.4991    332.91198   -983.58711   -1546.8453    810.91068   -1316.4991            0            0            0            0            0   -580.56448   -27.558372 
  920000    282.01193   -155.92431    867.37045     29908.73   -1364.8705    335.40898   -1029.4615   -1591.4858    807.35246   -1364.8705            0            0            0            0            0   -580.73719   -28.107614 
  925000    281.40352   -150.17582    872.87841    29720.003   -1388.7969    334.68537   -1054.1116   -1607.2703    799.03878   -1388.7969            0            0            0            0            0   -580.56537   -28.286102 
  930000    266.69853   -42.790752    865.00248    29990.606   -1349.0497    317.19609   -1031.8536   -1578.4327    809.97099   -1349.0497            0            0            0            0            0   -580.58799   -28.030878 
  935000    303.54266   -182.14665    870.80549     29790.75   -1382.8461     361.0164   -1021.8297   -1599.8564    797.45016   -1382.8461            0            0            0            0            0   -580.43983   -28.218928 
  940000    275.98458   -0.7186273    884.74363     29321.43   -1405.6465    328.24039   -1077.4061   -1623.2429    798.32788   -1405.6465            0            0            0            0            0   -580.73147   -28.670601 
  945000    271.52225    65.297706    884.60704    29325.958   -1408.2873    322.93314   -1085.3542   -1626.1833    798.68529   -1408.2873            0            0            0            0            0    -580.7893   -28.666175 
  950000    282.38291   -397.46576    870.48621    29801.677   -1380.4093    335.85019   -1044.5591   -1604.7089    804.93709   -1380.4093            0            0            0            0            0   -580.63748   -28.208582 
  955000    287.14885   -205.88208    869.30751    29842.085   -1379.5826    341.51854   -1038.0641   -1595.7331    796.92761   -1379.5826            0            0            0            0            0   -580.77713   -28.170385 
  960000     272.6524    107.72392    888.63171    29193.138    -1413.062    324.27727   -1088.7847   -1634.3447    801.41186    -1413.062            0            0            0            0            0   -580.12914   -28.796597 
  965000    289.14095    35.851039    874.91485    29650.827   -1369.9247    343.88782   -1026.0369   -1600.9885    811.55565   -1369.9247            0            0            0            0            0   -580.49194   -28.352094 
  970000    265.04895   -11.481026    889.86264    29152.756   -1425.4461    315.23416   -1110.2119   -1642.8643     798.0475   -1425.4461            0            0            0            0            0   -580.62927   -28.836486 
  975000    313.60898    270.32552    887.01252    29246.429    -1414.441    372.98872   -1041.4523   -1632.3421    798.70952    -1414.441            0            0            0            0            0    -580.8084   -28.744126 
  980000    270.37518    77.387562    872.40534    29736.119   -1370.5691    321.56888   -1049.0002   -1592.3262    802.42183   -1370.5691            0            0            0            0            0   -580.66477   -28.270772 
  985000    282.75469    183.93002    882.22504    29405.138    -1395.457    336.29237   -1059.1646   -1614.5697    799.79799    -1395.457            0            0            0            0            0   -580.68529   -28.588985 
  990000    265.83539   -573.32151    870.45539    29802.732    -1388.371    316.16951   -1072.2015   -1608.6262    801.01083    -1388.371            0            0            0            0            0   -580.75566   -28.207583 
  995000    283.98766    267.39318    882.09353    29409.522   -1397.4607    337.75879   -1059.7019   -1610.1275    793.06988   -1397.4607            0            0            0            0            0   -580.40314   -28.584723 
 1000000    269.31769   -170.81398    862.87149    30064.672   -1357.4097    320.31116   -1037.0985   -1574.4215     797.7556   -1357.4097            0            0            0            0            0   -580.74371   -27.961823 
 1005000    262.95329   -105.39646      877.881    29550.644   -1396.0056    312.74171   -1083.2639   -1615.9972    800.72813   -1396.0056            0            0            0            0            0   -580.73651   -28.448214 
 1010000    280.87262    217.36744    899.98796    28824.773   -1444.9886    334.05394   -1110.9347   -1663.4926    799.12952   -1444.9886            0            0            0            0            0   -580.62555   -29.164602 
 1015000    290.54466     243.4782    878.52533    29528.971   -1384.9792    345.55732   -1039.4219   -1603.9715    799.72497   -1384.9792            0            0            0            0            0   -580.73268   -28.469094 
 1020000    282.00174    212.62942    884.56549    29327.335     -1395.01    335.39685   -1059.6132    -1615.647    801.38901     -1395.01            0            0            0            0            0   -580.75202   -28.664828 
 1025000    292.88474   -425.28324    878.22511    29539.065   -1407.8381    348.34048   -1059.4976   -1629.9909     802.4753   -1407.8381            0            0            0            0            0   -580.32246   -28.459365 
 1030000    281.18011    205.54402    883.00984    29379.003   -1396.9711    334.41966   -1062.5514   -1614.4385    798.33717   -1396.9711            0            0            0            0            0   -580.86971   -28.614417 
 1035000    286.67033    -198.2405    889.14452    29176.301   -1428.8099    340.94942   -1087.8605   -1643.4326    795.43379   -1428.8099            0            0            0            0            0    -580.8111   -28.813215 
 1040000    283.42541    494.96074    890.83852    29120.821   -1407.7723    337.09009   -1070.6822   -1626.1211    798.90173   -1407.7723            0            0            0            0            0   -580.55295   -28.868109 
 1045000    293.46888    -420.8927    882.60406     29392.51   -1424.6469    349.03522   -1075.6117   -1641.0891    797.16244   -1424.6469            0            0            0            0            0   -580.72026   -28.601267 
 1050000    266.53031   0.23416659    887.49747    29230.448    -1421.587    316.99602    -1104.591    -1633.129    792.24948    -1421.587            0            0            0            0            0   -580.70752   -28.759841 
 1055000    302.71129   -114.96952    880.22338    29472.006   -1396.3798    360.02762   -1036.3522   -1619.3471    803.57841   -1396.3798            0            0            0            0            0   -580.61112    -28.52412 
 1060000    291.16776   -558.70618    871.97054    29750.946   -1395.1759     346.2984   -1048.8775   -1615.8687    801.36057   -1395.1759            0            0            0            0            0   -580.66782   -28.256682 
 1065000    275.13843   -531.59576    864.74016    29999.704   -1375.9593    327.23403   -1048.7252   -1594.7131    799.11684   -1375.9593            0            0            0            0            0   -580.36302   -28.022378 
 1070000    277.85906   -13.146811    876.46723     29598.31   -1398.2461    330.46979   -1067.7763   -1612.9252    795.20589   -1398.2461            0            0            0            0            0   -580.52678     -28.4024 
 1075000    303.23574    85.517555     881.4157    29432.138   -1406.0408    360.65137   -1045.3894   -1619.5889    793.97809   -1406.0408            0            0            0            0            0   -580.42994   -28.562758 
 1080000    294.43429   -339.23469    880.78137    29453.335    -1407.233    350.18342   -1057.0496   -1630.3043    803.87962    -1407.233            0            0            0            0            0   -580.80832   -28.542202 
 1085000    289.81022    178.47963    890.88449    29119.318   -1418.7362    344.68382   -1074.0524   -1639.1359      801.061   -1418.7362            0            0            0            0            0   -580.66125   -28.869599 
 1090000      286.783    27.197229    886.21154    29272.863   -1415.8784    341.08342    -1074.795    -1633.597    798.61328   -1415.8784            0            0            0            0            0   -580.89472    -28.71817 
 1095000    284.21161    90.297441    892.71108    29059.736   -1429.6778    338.02515   -1091.6526   -1647.4721    798.23287   -1429.6778            0            0            0            0            0   -580.43856   -28.928791 
 1100000    302.58166    274.84622    872.02947    29748.936   -1358.2803    359.87344   -998.40686   -1591.3167    813.59452   -1358.2803            0            0            0            0            0   -580.55815   -28.258592 
 1105000    279.59622    403.46427    878.63338    29525.339   -1389.6078    332.53587   -1057.0719   -1601.3534    792.50029   -1389.6078            0            0            0            0            0   -580.75462   -28.472595 
 1110000     281.9136    460.66898    885.96633    29280.964   -1403.6906    335.29203   -1068.3986   -1619.0732    795.93532   -1403.6906            0            0            0            0            0   -580.55276   -28.710223 
 1115000     290.6315   -55.432489    867.69903    29897.404   -1361.1809     345.6606   -1015.5203   -1576.5793    796.11842   -1361.1809            0            0            0            0            0   -580.71994   -28.118262 
 1120000    293.51833   -835.11942    854.86629    30346.206   -1360.3502    349.09404   -1011.2562   -1584.3191    804.51456   -1360.3502            0            0            0            0            0   -580.54562    -27.70241 
 1125000    287.07863   -120.50477    879.12052    29508.978   -1404.8586    341.43502   -1063.4235   -1624.2699    800.07152   -1404.8586            0            0            0            0            0   -580.66017   -28.488381 
 1130000     285.4346     14.18714     889.3573    29169.321   -1418.9595    339.47971   -1079.4797   -1635.7633    797.44515   -1418.9595            0            0            0            0            0   -580.64128    -28.82011 
 1135000    292.10051   -48.998067    888.31395    29203.581   -1428.7736    347.40775   -1081.3659   -1642.3391    794.31003   -1428.7736            0            0            0            0            0   -580.74458   -28.786299 
 1140000    303.29119    245.66144    880.06413    29477.339   -1383.2452    360.71731   -1022.5279   -1605.6716     802.9675   -1383.2452            0            0            0            0            0   -580.54113   -28.518959 
 1145000    286.15832    250.33898    862.07095    30092.591   -1339.8343    340.34046   -999.49387     -1561.02    801.53965   -1339.8343            0            0            0            0            0   -580.35394   -27.935881 
 1150000    292.35779   -80.545709    875.17398    29642.047   -1389.9102    347.71376   -1042.1964   -1609.8889    800.51514   -1389.9102            0            0            0            0            0   -580.53643   -28.360492 
 1155000    304.96304   -356.36692    873.28677    29706.105   -1399.2957    362.70573     -1036.59   -1617.7971    799.15729   -1399.2957            0            0            0            0            0   -580.65587   -28.299335 
 1160000    287.41295   -120.87382    867.95227    29888.681   -1365.6498    341.83264   -1023.8172   -1588.0147    802.91875   -1365.6498            0            0            0            0            0   -580.55385   -28.126468 
 1165000    290.84967   -547.95356    873.73988      29690.7   -1401.8644    345.92008   -1055.9443   -1624.7553    803.68545   -1401.8644            0            0            0            0            0   -580.79457   -28.314019 
 1170000    268.30656    412.32259    871.68449    29760.709   -1365.8836    319.10858    -1046.775   -1587.2806    801.88301   -1365.8836            0            0            0            0            0   -580.48607   -28.247413 
 1175000     295.9175    250.47814    881.07334    29443.575   -1395.3219    351.94747   -1043.3744    -1618.095    803.47964   -1395.3219            0            0            0            0            0   -580.70654   -28.551663 
 1180000    285.62529   -98.082859    873.78596    29689.134    -1387.613     339.7065   -1047.9065     -1602.75    795.79049    -1387.613            0            0            0            0            0    -580.6535   -28.315512 
 1185000    279.69887    94.894044    880.02882    29478.522   -1394.7278    332.65795   -1062.0698   -1610.1991     796.4326   -1394.7278            0            0            0            0            0   -580.96126   -28.517815 
 1190000    279.75694   -87.599607    867.14737    29916.424   -1356.1066    332.72702   -1023.3796   -1582.8067    807.11617   -1356.1066            0            0            0            0            0   -580.41612   -28.100385 
 1195000    284.22827      468.539    896.72377    28929.699   -1426.3288    338.04497   -1088.2838   -1639.1298     793.3461   -1426.3288            0            0            0            0            0   -580.54505   -29.058824 
 1200000    292.20194    28.348884     874.4403    29666.918   -1393.9477    347.52839   -1046.4193   -1605.8516    792.69001   -1393.9477            0            0            0            0            0   -580.78606   -28.336716 
 1205000     281.0125    25.076351    872.17871    29743.845   -1378.5801     334.2203   -1044.3598   -1596.3387    798.43033   -1378.5801            0            0            0            0            0   -580.67173   -28.263428 
 1210000    277.75885    328.65248    892.31806    29072.536   -1428.5578     330.3506   -1098.2072   -1635.0699    787.19581   -1428.5578            0            0            0            0            0   -580.68366   -28.916055 
 1215000    285.96563    -397.1007     877.7382    29555.451   -1401.6568    340.11128   -1061.5455   -1621.7897    800.89778   -1401.6568            0            0            0            0            0   -580.76484   -28.443586 
 1220000    293.45586    25.417676    866.35336    29943.842   -1358.0722    349.01974   -1009.0525   -1576.6432    799.38161   -1358.0722            0            0            0            0            0   -580.81065   -28.074655 
 1225000    263.23275   -301.16945    885.62302    29292.315   -1421.7673    313.07409   -1108.6932   -1641.6894     800.5327   -1421.7673            0            0            0            0            0    -580.6106   -28.699098 
 1230000    287.87538    84.379556    890.72418    29124.559   -1422.4533    342.38262   -1080.0706   -1642.1247    800.54944   -1422.4533            0            0            0            0            0   -580.87795   -28.864404 
 1235000    292.70125   -137.80514    866.06051    29953.968   -1372.6531    348.12225   -1024.5308   -1589.1545    796.91591   -1372.6531            0            0            0            0            0   -580.41451   -28.065164 
 1240000    305.09141   -203.55529    879.59326    29493.119   -1398.4631     362.8584   -1035.6047   -1621.6634    803.82879   -1398.4631            0            0            0            0            0   -580.62848   -28.503701 
 1245000    278.40768    262.20877    870.84673    29789.339    -1360.013    331.12229   -1028.8907   -1586.1216    806.97857    -1360.013            0            0            0            0            0   -580.87003   -28.220265 
 1250000    304.82314    309.75134    875.08431    29645.085   -1380.4953    362.53933    -1017.956   -1592.0953    792.10646   -1380.4953            0            0            0            0            0   -580.50645   -28.357586 
 1255000    262.85157     108.6564    876.35319    29602.161   -1382.8437    312.62073    -1070.223   -1603.9516    801.79863   -1382.8437            0            0            0            0            0   -580.69071   -28.398704 
 1260000    254.98984   -191.61853     872.8002    29722.666   -1380.5635    303.27043   -1077.2931   -1603.5042    803.53071   -1380.5635            0            0            0            0            0   -580.58996   -28.283568 
 1265000    285.19399   -172.44413    886.22437    29272.439   -1419.1921    339.19354   -1079.9986   -1644.5408    805.84196   -1419.1921            0            0            0            0            0   -580.49324   -28.718585 
 1270000    286.88404   -367.04576     864.2357    30017.215   -1367.2334    341.20358   -1026.0298   -1587.9018    801.45405   -1367.2334            0            0            0            0            0   -580.78557    -28.00603 
 1275000    286.55669   -168.76497    873.01143    29715.474   -1386.0348    340.81425   -1045.2205   -1608.1219    802.70695   -1386.0348            0            0            0            0            0   -580.61987   -28.290413 
 1280000    274.09008   -125.47676    872.09788    29746.602   -1381.5132    325.98718    -1055.526   -1606.7987     805.9633   -1381.5132            0            0            0            0            0   -580.67779   -28.260809 
 1285000    289.83239   -447.63514    889.10364    29177.643    -1435.672    344.71018   -1090.9619    -1660.524    805.39237    -1435.672            0            0            0            0            0   -580.54046    -28.81189 
 1290000    278.23844   -667.44215    880.37599    29466.897   -1422.6195      330.921   -1091.6985   -1640.2059       798.33   -1422.6195            0            0            0            0            0   -580.74367   -28.529065 
 1295000    303.60476    95.959352     888.6615     29192.16    -1413.811    361.09026   -1052.7207   -1630.8323    797.72445    -1413.811            0            0            0            0            0   -580.70316   -28.797562 
 1300000    294.69143   -617.25218    873.59422     29695.65   -1407.9732    350.48925    -1057.484   -1623.2146    795.99752   -1407.9732            0            0            0            0            0   -580.75618   -28.309299 
 1305000     295.9377    105.30605    879.35473    29501.119   -1403.0744     351.9715   -1051.1029   -1616.2772    793.93715   -1403.0744            0            0            0            0            0   -580.73434   -28.495971 
 1310000    284.90665   -36.660686    871.56573    29764.764   -1375.5525    338.85179   -1036.7007   -1598.1539    802.95419   -1375.5525            0            0            0            0            0   -580.35278   -28.243564 
 1315000    293.56261     196.6502    891.28861    29106.115   -1416.2816    349.14669   -1067.1349   -1643.2843    807.62094   -1416.2816            0            0            0            0            0   -580.61823   -28.882695 
 1320000    279.55845    349.57322    875.49547    29631.162   -1386.5062    332.49094   -1054.0153   -1607.4098    801.65647   -1386.5062            0            0            0            0            0   -580.75287    -28.37091 
 1325000    288.96934   -79.962356    890.85481    29120.288    -1434.875    343.68372   -1091.1913   -1648.2307    794.02317    -1434.875            0            0            0            0            0   -580.66753   -28.868637 
 1330000    297.23641     244.3815    878.40768    29532.926   -1390.4252    353.51611   -1036.9091   -1612.5097    802.51914   -1390.4252            0            0            0            0            0   -580.43464   -28.465281 
 1335000    297.45695    116.80529    876.77725    29587.844   -1382.7713     353.7784   -1028.9929   -1608.1416    805.62832   -1382.7713            0            0            0            0            0   -580.25799   -28.412446 
 1340000    282.43919    13.221821    869.59234     29832.31   -1368.5768    335.91714   -1032.6596   -1588.0115     800.1107   -1368.5768            0            0            0            0            0   -580.67595   -28.179615 
 1345000    288.50022    635.15625    885.29289    29303.238   -1380.0907    343.12578   -1036.9649   -1602.7958    803.46048   -1380.0907            0            0            0            0            0    -580.7553     -28.6884 
 1350000    286.85365   -503.39097    854.34266    30364.806   -1345.5738    341.16744   -1004.4064    -1569.729     804.7106   -1345.5738            0            0            0            0            0   -580.55546   -27.685441 
 1355000    301.87769    166.74558    876.83821    29585.787   -1383.5074    359.03618   -1024.4712   -1604.1358     801.1608   -1383.5074            0            0            0            0            0   -580.53244   -28.414422 
 1360000      275.892    152.53768    878.30196     29536.48   -1395.7652    328.13028   -1067.6349   -1607.1899    792.11226   -1395.7652            0            0            0            0            0   -580.68754   -28.461855 
 1365000     298.9798   -20.749476    876.74719    29588.858    -1391.266     355.5896   -1035.6764   -1617.8474    807.35206    -1391.266            0            0            0            0            0   -580.77062   -28.411472 
 1370000    284.86836    167.92485    885.17213    29307.236   -1403.1305    338.80625   -1064.3242   -1622.7012     800.2973   -1403.1305            0            0            0            0            0    -580.7266   -28.684487 
 1375000    281.51145   -150.29987    877.15361    29575.149   -1375.9747    334.81373    -1041.161   -1608.3101    813.20691   -1375.9747            0            0            0            0            0   -580.87154   -28.424642 
 1380000    287.17889   -583.28541    867.65823     29898.81   -1380.7398    341.55426   -1039.1855   -1601.3603    801.25418   -1380.7398            0            0            0            0            0   -580.63368   -28.116939 
 1385000    277.14549    240.57604      884.169    29340.487   -1404.1398    329.62111   -1074.5187   -1619.7513    796.30141   -1404.1398            0            0            0            0            0   -580.68994    -28.65198 
 1390000    273.64478    321.49292    884.73789     29321.62    -1403.745    325.45756   -1078.2874   -1619.5465    796.53015    -1403.745            0            0            0            0            0   -580.72865   -28.670415 
 1395000    261.10426   -231.43691    876.44665    29599.005   -1406.3387    310.54258   -1095.7961   -1622.4071    796.52802   -1406.3387            0            0            0            0            0   -580.45955   -28.401733 
 1400000    277.11453    269.29873    879.01586    29512.492   -1383.1681    329.58428   -1053.5838   -1603.3233    800.75092   -1383.1681            0            0            0            0            0   -580.59577    -28.48499 
 1405000    282.40901   -96.752728    877.61901    29559.465   -1400.3926    335.88124   -1064.5113   -1614.8842    795.34817   -1400.3926            0            0            0            0            0   -580.85655   -28.439724 
 1410000    285.05916   -522.46643    878.49939    29529.842   -1407.5069    339.03317   -1068.4737   -1634.1964    807.29058   -1407.5069            0            0            0            0            0   -580.60101   -28.468253 
 1415000    285.20286    279.97232    879.97982    29480.163   -1389.8706    339.20408   -1050.6665   -1608.0588    798.90323   -1389.8706            0            0            0            0            0   -580.71505   -28.516227 
 1420000    274.98696   -213.80972    876.59719    29593.922   -1398.0061    327.05387   -1070.9522   -1614.0347    796.75644   -1398.0061            0            0            0            0            0   -580.72776   -28.406611 
 1425000    288.98475     -278.021    876.72128    29589.733   -1401.6974    343.70204   -1057.9954    -1616.065    795.19111   -1401.6974            0            0            0            0            0    -580.8235   -28.410633 
 1430000    289.53656     236.4565    894.38595    29005.318   -1424.8384    344.35834     -1080.48   -1638.7094    794.68687   -1424.8384            0            0            0            0            0   -580.81584   -28.983066 
 1435000    280.26823   -410.90118    867.09921    29918.086   -1379.8608    333.33512   -1046.5257    -1593.309    794.21002   -1379.8608            0            0            0            0            0   -580.76185   -28.098824 
 1440000    290.74176    429.07413    875.10155    29644.501   -1371.7373    345.79173   -1025.9456    -1593.503    802.57258   -1371.7373            0            0            0            0            0   -580.80692   -28.358144 
 1445000     294.6849   -397.11467    874.01627    29681.311   -1394.9081    350.48149   -1044.4266     -1616.27    802.10027   -1394.9081            0            0            0            0            0   -580.73836   -28.322975 
 1450000     289.9514    -104.2478    884.41886    29332.197   -1403.1494    344.85173   -1058.2977    -1629.409    806.92322   -1403.1494            0            0            0            0            0   -580.66363   -28.660077 
 1455000    288.36076    216.34859    876.11204    29610.309   -1389.1149    342.95992    -1046.155   -1597.9332    789.64753   -1389.1149            0            0            0            0            0   -580.82915    -28.39089 
 1460000    269.02954   -397.27544    874.88781    29651.743   -1400.6161    319.96845   -1080.6477   -1619.4856    799.47878   -1400.6161            0            0            0            0            0   -580.60936   -28.351218 
 1465000    284.44168    227.17078    876.86044    29585.037   -1384.7594    338.29878   -1046.4607   -1599.6387     795.5527   -1384.7594            0            0            0            0            0   -580.67347   -28.415142 
 1470000    286.61452   -232.23126    867.62045    29900.112   -1376.4986    340.88303   -1035.6155   -1593.6222    797.79447   -1376.4986            0            0            0            0            0   -580.67087   -28.115715 
 1475000    270.09172    175.05193    897.40778    28907.648   -1433.6695    321.23175   -1112.4378   -1655.4794    802.33384   -1433.6695            0            0            0            0            0     -580.524    -29.08099 
 1480000    312.83976   -275.89341    885.03163    29311.889   -1430.7378    372.07384    -1058.664   -1645.2984    795.34426   -1430.7378            0            0            0            0            0   -580.78368   -28.679934 
 1485000    278.73549   -559.15602    863.93692    30027.596   -1394.1043    331.51217   -1062.5921   -1609.7964    796.33821   -1394.1043            0            0            0            0            0   -580.64604   -27.996348 
 1490000     285.9609   -26.111051    887.56802    29228.125   -1414.5177    340.10566    -1074.412   -1634.3831    800.53763   -1414.5177            0            0            0            0            0   -580.67224   -28.762127 
 1495000    274.66776   -7.5147045    877.56931    29561.139   -1395.6518    326.67424   -1068.9776   -1616.1112    801.32562   -1395.6518            0            0            0            0            0   -580.86619   -28.438113 
 1500000    281.79416   -273.95876    885.09471      29309.8   -1437.6718    335.14997   -1102.5219   -1641.9717    784.98255   -1437.6718            0            0            0            0            0   -580.68272   -28.681978 
 1505000    280.08577   -169.50233      885.057    29311.049   -1423.2187    333.11811   -1090.1005   -1635.6194    792.95264   -1423.2187            0            0            0            0            0   -580.55192   -28.680756 
 1510000    273.99969   -251.84073    877.53683    29562.234   -1398.8742    325.87967   -1072.9945   -1614.4511     796.2861   -1398.8742            0            0            0            0            0   -580.70921   -28.437061 
 1515000    316.21505    284.05662    891.89645    29086.279   -1418.5326    376.08823   -1042.4444   -1637.9721    800.18984   -1418.5326            0            0            0            0            0   -580.75037   -28.902392 
 1520000    294.99368    141.75518    889.45339     29166.17   -1417.9146    350.84873   -1067.0659   -1633.6525     796.6152   -1417.9146            0            0            0            0            0    -580.8773   -28.823223 
 1525000    288.60138     280.7772    884.87289    29317.147   -1388.9812     343.2461   -1045.7351   -1623.1509    814.81651   -1388.9812            0            0            0            0            0   -580.64682    -28.67479 
 1530000    290.97057   -141.51031    898.15029     28883.75   -1457.4496    346.06387   -1111.3857   -1676.4469    799.68023   -1457.4496            0            0            0            0            0   -580.68294   -29.105051 
 1535000    272.37017   -271.86093    871.53015     29765.98   -1378.5122    323.94161   -1054.5706   -1603.7217    806.02927   -1378.5122            0            0            0            0            0   -580.81984   -28.242411 
 1540000    276.52535   -40.624645    865.44459    29975.285   -1353.9266    328.88354   -1025.0431   -1582.5838    809.15784   -1353.9266            0            0            0            0            0   -580.50063   -28.045205 
 1545000    272.34159    282.30403    874.73063    29657.071   -1364.6144    323.90762   -1040.7068   -1586.7936    802.59196   -1364.6144            0            0            0            0            0   -580.41278   -28.346125 
 1550000    282.04562   -105.50503    862.74744    30068.995   -1358.7108    335.44904   -1023.2617   -1574.2396    796.28208   -1358.7108            0            0            0            0            0   -580.75321   -27.957803 
 1555000    301.40466   -401.06032    861.68857    30105.945   -1363.1789    358.47358   -1004.7053   -1588.4049    806.08316   -1363.1789            0            0            0            0            0   -580.85715   -27.923489 
 1560000    245.89522   -99.565525    866.27491    29946.554   -1355.4137    292.45381   -1062.9599   -1582.8072    808.05789   -1355.4137            0            0            0            0            0   -580.66443   -28.072112 
 1565000    284.03128   -237.97666    891.92036    29085.499    -1440.583    337.81068   -1102.7723   -1656.4328    796.71785    -1440.583            0            0            0            0            0   -580.86802   -28.903167 
 1570000    283.05558   -82.596728      882.446    29397.774   -1411.7514    336.65023   -1075.1011   -1627.4409    796.44833   -1411.7514            0            0            0            0            0   -580.75883   -28.596145 
 1575000    287.25791    332.49146    896.33503    28942.246   -1432.6801    341.64824   -1091.0318   -1649.2274    797.30744   -1432.6801            0            0            0            0            0   -580.76015   -29.046227 
 1580000    289.52195    153.88816    888.54991    29195.826   -1410.1504    344.34097   -1065.8094   -1627.0001    797.37208   -1410.1504            0            0            0            0            0    -580.5224   -28.793946 
 1585000    281.18598   -133.98009    876.14611    29609.158    -1378.639    334.42663   -1044.2124   -1605.9925    808.20185    -1378.639            0            0            0            0            0   -580.84839   -28.391994 
 1590000    282.14825    160.44013    883.49503    29362.869   -1398.0033    335.57111   -1062.4322   -1628.0894    810.67864   -1398.0033            0            0            0            0            0   -580.59248    -28.63014 
 1595000    268.72002   -38.075801    888.08021    29211.268   -1420.4529    319.60034   -1100.8526   -1642.4134    802.73732   -1420.4529            0            0            0            0            0   -580.77687   -28.778725 
[...]
 4600000    269.43624   -204.54459    872.96626    29717.012   -1389.6749    320.45216   -1069.2228   -1606.1105    797.30359   -1389.6749            0            0            0            0            0   -580.86797   -28.288949 
 4605000    271.86468   -103.24978    874.63547    29660.298    -1367.496    323.34041   -1044.1556   -1597.9431     811.2439    -1367.496            0            0            0            0            0   -580.79679   -28.343041 
 4610000    273.83439   -304.70459    884.85934    29317.596   -1422.6151    325.68307    -1096.932   -1643.2721    801.29044   -1422.6151            0            0            0            0            0   -580.63344   -28.674351 
 4615000    291.62939    313.17091    878.87506     29517.22   -1392.3285    346.84743   -1045.4811   -1611.7026     799.9582   -1392.3285            0            0            0            0            0   -580.58416   -28.480427 
 4620000    262.62306    138.96139    869.46541    29836.666   -1357.7606    312.34895   -1045.4116   -1575.5071    798.41307   -1357.7606            0            0            0            0            0   -580.66654   -28.175502 
 4625000    284.57212    545.77115    877.48943     29563.83   -1375.8266    338.45391   -1037.3726   -1600.9194    805.57221   -1375.8266            0            0            0            0            0   -580.47938   -28.435525 
 4630000    275.82464   -6.1522866    878.58712    29526.894   -1395.4453    328.05016   -1067.3951   -1610.6158    795.99575   -1395.4453            0            0            0            0            0   -580.82523   -28.471096 
 4635000     265.7379   -631.00995    869.74188    29827.181   -1389.2617    316.05357   -1073.2081   -1611.5656    803.17492   -1389.2617            0            0            0            0            0   -580.87107   -28.184461 
 4640000    266.23123     24.83504    874.92401    29650.516   -1395.5188    316.64031   -1078.8785   -1612.2921    797.43852   -1395.5188            0            0            0            0            0    -580.6652   -28.352391 
 4645000    272.22353    57.215591     870.2546    29809.608   -1365.9708    323.76721   -1042.2036   -1585.7646    800.68033   -1365.9708            0            0            0            0            0   -580.88648   -28.201076 
 4650000    302.45178   -595.58072    857.93253    30237.749   -1358.0042    359.71897   -998.28519   -1578.1675    800.79149   -1358.0042            0            0            0            0            0   -580.62817   -27.801773 
 4655000    266.62529   -141.71947    876.40829      29600.3   -1403.6794    317.10898   -1086.5704   -1615.6066    792.87889   -1403.6794            0            0            0            0            0   -580.95166    -28.40049 
 4660000    280.71349    610.11792     887.3359     29235.77   -1393.3748    333.86468   -1059.5102   -1617.1812    804.45049   -1393.3748            0            0            0            0            0   -580.64414   -28.754605 
 4665000     283.2721    112.35499     867.8387    29892.592   -1371.1107    336.90775    -1034.203   -1582.8638    792.50197   -1371.1107            0            0            0            0            0   -580.74893   -28.122788 
 4670000    282.17157    237.95135    892.39954    29069.881   -1424.3509    335.59884    -1088.752   -1642.0869    798.60682   -1424.3509            0            0            0            0            0   -580.87082   -28.918695 
 4675000    276.26991    -156.2255    875.05137    29646.201   -1397.0675    328.57975   -1068.4877   -1616.8853    800.58957   -1397.0675            0            0            0            0            0   -580.77174   -28.356518 
 4680000    271.70835    698.86101    883.25176    29370.956   -1383.8341    323.15448   -1060.6796    -1605.618    802.46382   -1383.8341            0            0            0            0            0   -580.67985   -28.622256 
 4685000     276.7269    125.84919     883.7668    29353.839   -1401.5309    329.12326   -1072.4077   -1624.0724    803.21279   -1401.5309            0            0            0            0            0   -580.67129   -28.638947 
 4690000    275.87815    620.95419    896.79801    28927.304   -1421.7316     328.1138   -1093.6178   -1648.4789    807.61107   -1421.7316            0            0            0            0            0   -580.86381    -29.06123 
 4695000    293.72609    410.78034    884.63208    29325.127     -1397.27    349.34113   -1047.9289    -1613.972    797.64851     -1397.27            0            0            0            0            0   -580.94655   -28.666986 
 4700000    293.76514    470.44592    888.28064    29204.676   -1396.9598    349.38757   -1047.5722    -1617.024    800.84653   -1396.9598            0            0            0            0            0   -580.78236    -28.78522 
 4705000    282.90062   -273.91444    885.63758    29291.834    -1424.463    336.46594    -1087.997   -1645.4349    801.52464    -1424.463            0            0            0            0            0   -580.55276    -28.69957 
 4710000    284.86814   -176.59047    868.17871    29880.886   -1372.3562    338.80598   -1033.5502   -1590.3106    798.41616   -1372.3562            0            0            0            0            0   -580.46171   -28.133806 
 4715000    266.63575    576.97411    885.39015    29300.019   -1382.4765    317.12142    -1065.355   -1601.7005    799.86729   -1382.4765            0            0            0            0            0   -580.64324   -28.691552 
 4720000     297.2458    416.86908    887.83117    29219.462   -1401.9996    353.52728   -1048.4723   -1620.2228    798.98962   -1401.9996            0            0            0            0            0   -580.76637   -28.770654 
 4725000    297.02657    95.969621    873.24868    29707.401   -1369.6848    353.26654   -1016.4182   -1591.8089    802.60461   -1369.6848            0            0            0            0            0   -580.48045   -28.298101 
 4730000    282.02544   -318.64922    878.13721    29542.022   -1396.3017    335.42504   -1060.8767   -1615.9153    800.38426   -1396.3017            0            0            0            0            0   -580.77071   -28.456517 
 4735000    289.97562    261.11247    873.54667    29697.267   -1373.0389    344.88054   -1028.1584   -1593.0357    800.82372   -1373.0389            0            0            0            0            0   -580.82695   -28.307758 
 4740000    278.31299    356.79067    887.69871    29223.821   -1404.5829    331.00967   -1073.5732   -1626.3573    802.52509   -1404.5829            0            0            0            0            0   -580.75068   -28.766362 
 4745000    289.92593    123.08617    890.11444    29144.509   -1414.4435    344.82143   -1069.6221   -1634.7954    801.05345   -1414.4435            0            0            0            0            0   -580.70154   -28.844645 
 4750000     282.9188    86.756178    874.53545     29663.69   -1380.8097    336.48756   -1044.3221   -1596.6974    796.61882   -1380.8097            0            0            0            0            0   -580.73113     -28.3398 
 4755000    285.98352   -205.43694    862.95986    30061.594   -1359.6102    340.13256   -1019.4777   -1584.3438    805.12177   -1359.6102            0            0            0            0            0   -580.38821   -27.964686 
 4760000    286.47137    59.613262    868.80564    29859.323   -1368.9834    340.71278   -1028.2706   -1592.7734    804.37219   -1368.9834            0            0            0            0            0   -580.58219   -28.154122 
 4765000     282.9057   0.81987355    882.53619     29394.77   -1405.3426    336.47197   -1068.8706   -1624.8979    800.44111   -1405.3426            0            0            0            0            0   -580.88575   -28.599068 
 4770000    264.91577   -238.60416    878.42925      29532.2   -1404.8717    315.07577    -1089.796   -1619.8811    795.79663   -1404.8717            0            0            0            0            0   -580.78722    -28.46598 
 4775000    266.21791    -167.6496    875.20723    29640.921   -1391.0997    316.62447   -1074.4752   -1604.9283     794.6081   -1391.0997            0            0            0            0            0   -580.77946   -28.361569 
 4780000    296.20969    190.42764    871.61347    29763.134   -1371.5325    352.29498   -1019.2375     -1595.41     804.7236   -1371.5325            0            0            0            0            0   -580.84612   -28.245111 
 4785000    293.06988    3.1594451    878.46472    29531.008   -1390.4277    348.56068    -1041.867   -1609.1195    799.29663   -1390.4277            0            0            0            0            0   -580.60486    -28.46713 
 4790000    281.28633   -330.03423    865.37801    29977.592   -1369.5607    334.54599   -1035.0147   -1592.3765    803.44948   -1369.5607            0            0            0            0            0   -580.63363   -28.043048 
 4795000    272.93848   -406.01191    863.72684    30034.899   -1370.8997    324.61752   -1046.2822   -1592.6917    802.43164   -1370.8997            0            0            0            0            0   -580.63961   -27.989541 
 4800000    271.29178   -81.986146    871.46317    29768.267   -1388.2661    322.65904   -1065.6071   -1595.5654    788.03066   -1388.2661            0            0            0            0            0   -580.73133   -28.240241 
 4805000    291.80143    349.16605    877.69601    29556.872   -1379.5226    347.05206   -1032.4706    -1601.521    802.67275   -1379.5226            0            0            0            0            0   -580.67435   -28.442219 
 4810000    267.21093     302.9753    892.05767    29081.022    -1418.809     317.8055   -1101.0035   -1642.9607    804.86622    -1418.809            0            0            0            0            0    -580.7145   -28.907617 
 4815000    278.63404   -302.44696    865.28936    29980.663   -1375.7937     331.3915   -1044.4022   -1590.5171    795.22034   -1375.7937            0            0            0            0            0   -580.49701   -28.040175 
 4820000     284.1695    529.87767    883.90567    29349.228   -1398.9399    337.97507   -1060.9649   -1617.3333    799.19905   -1398.9399            0            0            0            0            0    -580.8057   -28.643447 
 4825000    290.52726    50.242206     880.6916    29456.337   -1400.1824    345.53663   -1054.6458   -1611.1761    791.75113   -1400.1824            0            0            0            0            0   -580.75746   -28.539293 
 4830000    286.83033    92.718597     873.9534    29683.446   -1373.7377    341.13971    -1032.598   -1595.0425     802.1182   -1373.7377            0            0            0            0            0    -580.8134   -28.320938 
 4835000    277.38746    302.11042    886.10803    29276.282   -1407.9433    329.90889   -1078.0344   -1631.1557    803.90669   -1407.9433            0            0            0            0            0   -580.69423   -28.714815 
 4840000    299.14411   -57.996359    877.98448    29547.161   -1407.8722    355.78502   -1052.0871   -1619.2784    792.19763   -1407.8722            0            0            0            0            0   -580.79137   -28.451567 
 4845000    273.45895   -147.56108    871.14882    29779.009   -1387.2989    325.23654   -1062.0624   -1603.6383    796.86107   -1387.2989            0            0            0            0            0   -580.52163   -28.230054 
 4850000    293.78863   -465.24482    868.73982    29861.586   -1386.1061    349.41551   -1036.6905   -1605.7104    800.04737   -1386.1061            0            0            0            0            0   -580.44299   -28.151989 
 4855000    281.54268   -247.23766    874.79616     29654.85    -1396.327    334.85088   -1061.4761    -1619.215    803.53883    -1396.327            0            0            0            0            0   -580.65085   -28.348248 
 4860000    283.33116    368.53088    890.08217    29145.566   -1407.7489      336.978   -1070.7709   -1622.8904      795.859   -1407.7489            0            0            0            0            0    -580.7175     -28.8436 
 4865000    288.45578   -60.581725    872.83499    29721.481   -1370.2289    343.07293    -1027.156   -1592.2602    802.63728   -1370.2289            0            0            0            0            0   -580.60598   -28.284695 
 4870000    272.10982    79.320826    869.06233    29850.504   -1356.6684    323.63197   -1033.0364   -1584.2439    808.21312   -1356.6684            0            0            0            0            0   -580.63762    -28.16244 
 4875000    278.67735    126.05109    869.38972    29839.263   -1368.7731    331.44301   -1037.3301   -1584.6227    796.61641   -1368.7731            0            0            0            0            0   -580.76673   -28.173049 
 4880000    283.32108       239.63    868.43691    29872.001   -1363.3132      336.966   -1026.3472    -1573.433    790.79342   -1363.3132            0            0            0            0            0   -580.67356   -28.142173 
 4885000    289.04024     246.1488     858.7828    30207.811   -1322.3412    343.76804   -978.57315   -1553.0681    811.52079   -1322.3412            0            0            0            0            0   -580.79386   -27.829326 
 4890000    263.78075   -228.20157    883.44823    29364.424   -1418.0226    313.72584   -1104.2967   -1634.5026    797.15071   -1418.0226            0            0            0            0            0   -580.67062   -28.628623 
 4895000    292.13838    -71.45856     882.2926    29402.886   -1407.4382     347.4528   -1059.9853   -1621.2212    794.48243   -1407.4382            0            0            0            0            0    -580.6994   -28.591174 
 4900000    277.37026     235.1376    884.24378    29338.005    -1395.754    329.88844   -1065.8655    -1616.633    801.43199    -1395.754            0            0            0            0            0   -580.55294   -28.654403 
 4905000    276.96832   -267.76143    860.07953    30162.267   -1358.3224    329.41038   -1028.9121    -1570.385    792.75855   -1358.3224            0            0            0            0            0   -580.69598   -27.871347 
 4910000    270.48951    99.601568    877.43117    29565.793   -1385.2467    321.70486   -1063.5418   -1599.3558    794.78803   -1385.2467            0            0            0            0            0   -580.67895   -28.433637 
 4915000    275.30261    250.11603    881.07566    29443.497   -1396.1969    327.42929   -1068.7676   -1612.8877    797.22248   -1396.1969            0            0            0            0            0   -580.53175   -28.551739 
 4920000    317.27062   -482.15167    875.94942    29615.807   -1401.1666    377.34365    -1023.823   -1623.6154    803.05589   -1401.1666            0            0            0            0            0   -580.60716    -28.38562 
 4925000    290.48043    -371.9144    869.12943    29848.199   -1388.2893    345.48093   -1042.8084   -1602.6527    794.87379   -1388.2893            0            0            0            0            0   -580.51036   -28.164615 
 4930000    291.42134    536.53571    881.81173     29418.92   -1376.1325    346.59999   -1029.5325   -1608.5642     812.5956   -1376.1325            0            0            0            0            0   -580.16387   -28.575591 
 4935000    266.68544    -240.0022    867.53447    29903.075   -1362.6113    317.18051   -1045.4307   -1584.8288    802.60037   -1362.6113            0            0            0            0            0   -580.38279   -28.112929 
 4940000     276.6903    232.89171     893.7538    29025.833   -1435.5211    329.07973   -1106.4414   -1651.6275    796.78511   -1435.5211            0            0            0            0            0   -580.67873   -28.962581 
 4945000    280.42479    376.32595    889.31289    29170.778    -1417.504    333.52132   -1083.9827    -1633.274    796.63379    -1417.504            0            0            0            0            0   -580.86383   -28.818671 
 4950000     269.0875   -527.31028     884.6719    29323.808   -1424.7162    320.03739   -1104.6788   -1646.6041    802.60456   -1424.7162            0            0            0            0            0   -580.71665   -28.668277 
 4955000    298.73673   -71.766422    885.27195    29303.931   -1423.5162     355.3005   -1068.2157   -1631.4078    788.81934   -1423.5162            0            0            0            0            0   -580.92779   -28.687722 
 4960000    293.99789   -233.33969    880.30425    29469.298   -1405.3216    349.66439   -1055.6572   -1621.2181    796.55743   -1405.3216            0            0            0            0            0    -580.6609   -28.526741 
 4965000    277.12476   -355.23801    874.67036    29659.115   -1402.9075    329.59645   -1073.3111   -1616.9065    794.73938   -1402.9075            0            0            0            0            0   -580.74043   -28.344172 
 4970000    282.96087    447.69504    879.33734    29501.703   -1375.8896    336.53759    -1039.352   -1596.0125    800.94565   -1375.8896            0            0            0            0            0   -580.82275   -28.495407 
 4975000    268.75928   -4.8187149    884.76931    29320.579   -1403.3944    319.64702   -1083.7474   -1628.6273    806.06048   -1403.3944            0            0            0            0            0   -580.82762   -28.671434 
 4980000    260.35798    603.21364    892.91858    29052.983   -1406.8103      309.655   -1097.1553   -1625.0116    798.92346   -1406.8103            0            0            0            0            0   -580.72216   -28.935515 
 4985000    286.80177    411.50386    875.18419    29641.701   -1374.5708    341.10573   -1033.4651    -1594.139    799.90237   -1374.5708            0            0            0            0            0   -580.33417   -28.360822 
 4990000    267.50716   0.20968029    876.15649    29608.807   -1387.2943    318.15783   -1069.1365   -1601.8169    795.42584   -1387.2943            0            0            0            0            0   -580.90318    -28.39233 
 4995000    278.35469    236.84987    867.07668    29918.863   -1345.8069    331.05926   -1014.7477   -1568.2283    803.28081   -1345.8069            0            0            0            0            0   -580.85943   -28.098094 
 5000000    279.27242    207.57537     887.5843    29227.588   -1405.8431    332.15076   -1073.6924   -1620.5375    795.56828   -1405.8431            0            0            0            0            0    -580.8739   -28.762655 
Loop time of 295031 on 1 procs for 5000000 steps with 2400 atoms

Performance: 1.464 ns/day, 16.391 hours/ns, 16.947 timesteps/s
100.0% CPU use with 1 MPI tasks x 1 OpenMP threads

MPI task timing breakdown:
Section |  min time  |  avg time  |  max time  |%varavg| %total
---------------------------------------------------------------
Pair    | 2.7316e+05 | 2.7316e+05 | 2.7316e+05 |   0.0 | 92.59
Bond    | 11.077     | 11.077     | 11.077     |   0.0 |  0.00
Kspace  | 8912.3     | 8912.3     | 8912.3     |   0.0 |  3.02
Neigh   | 7496.2     | 7496.2     | 7496.2     |   0.0 |  2.54
Comm    | 833.83     | 833.83     | 833.83     |   0.0 |  0.28
Output  | 0.096501   | 0.096501   | 0.096501   |   0.0 |  0.00
Modify  | 4448.6     | 4448.6     | 4448.6     |   0.0 |  1.51
Other   |            | 170.8      |            |       |  0.06

Nlocal:        2400.00 ave        2400 max        2400 min
Histogram: 1 0 0 0 0 0 0 0 0 0
Nghost:        19284.0 ave       19284 max       19284 min
Histogram: 1 0 0 0 0 0 0 0 0 0
Neighs:    1.90976e+06 ave 1.90976e+06 max 1.90976e+06 min
Histogram: 1 0 0 0 0 0 0 0 0 0

Total # of neighbors = 1909765
Ave neighs/atom = 795.73542
Ave special neighs/atom = 8.5000000
Neighbor list builds = 75779
Dangerous builds = 0
Total wall time: 98:25:15
