LAMMPS (29 Sep 2021 - Update 2)
OMP_NUM_THREADS environment is not set. Defaulting to 1 thread. (src/comm.cpp:98)
  using 1 OpenMP thread(s) per MPI task
Reading data file ...
  orthogonal box = (-15.466318 -15.466318 -15.466318) to (15.466318 15.466318 15.466318)
  1 by 1 by 1 MPI processor grid
  reading atoms ...
  2400 atoms
  scanning bonds ...
  3 = max bonds/atom
  scanning angles ...
  3 = max angles/atom
  scanning dihedrals ...
  4 = max dihedrals/atom
  reading bonds ...
  2400 bonds
  reading angles ...
  3600 angles
  reading dihedrals ...
  3600 dihedrals
Finding 1-2 1-3 1-4 neighbors ...
  special bond factors lj:    0        0        0       
  special bond factors coul:  0        0        0       
     3 = max # of 1-2 neighbors
     4 = max # of 1-3 neighbors
     8 = max # of 1-4 neighbors
    10 = max # of special neighbors
  special bonds CPU = 0.001 seconds
  read_data CPU = 0.023 seconds
  200 rigid bodies with 2400 atoms
PPPM initialization ...
  using 12-bit tables for long-range coulomb (src/kspace.cpp:340)
  G vector (1/distance) = 0.1428774
  grid = 6 6 6
  stencil order = 5
  estimated absolute RMS force accuracy = 0.0078609937
  estimated relative force accuracy = 2.3673149e-05
  using double precision FFTW3
  3d grid and FFT values/proc = 1331 216
Neighbor list info ...
  update every 1 steps, delay 10 steps, check yes
  max neighbors/atom: 2000, page size: 100000
  master list distance cutoff = 16.655
  ghost atom cutoff = 16.655
  binsize = 8.3275, bins = 4 4 4
  1 neighbor lists, perpetual/occasional/extra = 1 0 0
  (1) pair lj/cut/coul/long, perpetual
      attributes: half, newton on
      pair build: half/bin/newton
      stencil: half/bin/3d
      bin: standard
Setting up Verlet run ...
  Unit style    : real
  Current step  : 0
  Time step     : 1
Per MPI rank memory allocation (min/avg/max) = 29.12 | 29.12 | 29.12 Mbytes
Step Temp E_pair E_mol TotEng Press 
       0    280.72245     12647.25            0    12981.125    98173.845 
    5000    9426.7296    1759.3058            0    12970.923      70806.8 
Loop time of 337.406 on 1 procs for 5000 steps with 2400 atoms

Performance: 1.280 ns/day, 18.745 hours/ns, 14.819 timesteps/s
100.0% CPU use with 1 MPI tasks x 1 OpenMP threads

MPI task timing breakdown:
Section |  min time  |  avg time  |  max time  |%varavg| %total
---------------------------------------------------------------
Pair    | 281.53     | 281.53     | 281.53     |   0.0 | 83.44
Bond    | 0.0054362  | 0.0054362  | 0.0054362  |   0.0 |  0.00
Kspace  | 8.9014     | 8.9014     | 8.9014     |   0.0 |  2.64
Neigh   | 44.483     | 44.483     | 44.483     |   0.0 | 13.18
Comm    | 1.0075     | 1.0075     | 1.0075     |   0.0 |  0.30
Output  | 3.8351e-05 | 3.8351e-05 | 3.8351e-05 |   0.0 |  0.00
Modify  | 1.3505     | 1.3505     | 1.3505     |   0.0 |  0.40
Other   |            | 0.1295     |            |       |  0.04

Nlocal:        2400.00 ave        2400 max        2400 min
Histogram: 1 0 0 0 0 0 0 0 0 0
Nghost:        19141.0 ave       19141 max       19141 min
Histogram: 1 0 0 0 0 0 0 0 0 0
Neighs:    1.88212e+06 ave 1.88212e+06 max 1.88212e+06 min
Histogram: 1 0 0 0 0 0 0 0 0 0

Total # of neighbors = 1882118
Ave neighs/atom = 784.21583
Ave special neighs/atom = 8.5000000
Neighbor list builds = 425
Dangerous builds = 46
  create bodies CPU = 0.001 seconds
  200 rigid bodies with 2400 atoms
  3.8930168 = max distance from body owner to body atom
PPPM initialization ...
  using 12-bit tables for long-range coulomb (src/kspace.cpp:340)
  G vector (1/distance) = 0.1428774
  grid = 6 6 6
  stencil order = 5
  estimated absolute RMS force accuracy = 0.0078609937
  estimated relative force accuracy = 2.3673149e-05
  using double precision FFTW3
  3d grid and FFT values/proc = 1331 216
Setting up Verlet run ...
  Unit style    : real
  Current step  : 5000
  Time step     : 1
Per MPI rank memory allocation (min/avg/max) = 37.00 | 37.00 | 37.00 Mbytes
Step Temp E_pair E_mol TotEng Press Volume 
    5000    9426.7296    1759.3058            0    12970.923    75047.738    29597.212 
 1005000    284.08376   -1342.3864            0   -1004.5134   -308.78203    30338.959 
Loop time of 58272 on 1 procs for 1000000 steps with 2400 atoms

Performance: 1.483 ns/day, 16.187 hours/ns, 17.161 timesteps/s
100.0% CPU use with 1 MPI tasks x 1 OpenMP threads

MPI task timing breakdown:
Section |  min time  |  avg time  |  max time  |%varavg| %total
---------------------------------------------------------------
Pair    | 53907      | 53907      | 53907      |   0.0 | 92.51
Bond    | 2.1525     | 2.1525     | 2.1525     |   0.0 |  0.00
Kspace  | 1793.3     | 1793.3     | 1793.3     |   0.0 |  3.08
Neigh   | 1513.2     | 1513.2     | 1513.2     |   0.0 |  2.60
Comm    | 159.96     | 159.96     | 159.96     |   0.0 |  0.27
Output  | 4.0091e-05 | 4.0091e-05 | 4.0091e-05 |   0.0 |  0.00
Modify  | 863.3      | 863.3      | 863.3      |   0.0 |  1.48
Other   |            | 33.25      |            |       |  0.06

Nlocal:        2400.00 ave        2400 max        2400 min
Histogram: 1 0 0 0 0 0 0 0 0 0
Nghost:        18839.0 ave       18839 max       18839 min
Histogram: 1 0 0 0 0 0 0 0 0 0
Neighs:    1.83639e+06 ave 1.83639e+06 max 1.83639e+06 min
Histogram: 1 0 0 0 0 0 0 0 0 0

Total # of neighbors = 1836386
Ave neighs/atom = 765.16083
Ave special neighs/atom = 8.5000000
Neighbor list builds = 15321
Dangerous builds = 1
PPPM initialization ...
  using 12-bit tables for long-range coulomb (src/kspace.cpp:340)
  G vector (1/distance) = 0.14234082
  grid = 6 6 6
  stencil order = 5
  estimated absolute RMS force accuracy = 0.0080244988
  estimated relative force accuracy = 2.416554e-05
  using double precision FFTW3
  3d grid and FFT values/proc = 1331 216
Setting up Verlet run ...
  Unit style    : real
  Current step  : 0
  Time step     : 1
Per MPI rank memory allocation (min/avg/max) = 37.01 | 37.01 | 37.01 Mbytes
Step Temp Press v_dens Volume PotEng KinEng TotEng E_vdwl E_coul E_pair E_bond E_angle E_dihed E_impro E_mol E_long E_tail 
       0    284.08376   -177.30798    855.07049    30338.959   -1342.4093    337.87309   -1004.5362   -1565.0847    799.45318   -1342.4093            0            0            0            0            0    -576.7778   -27.709027 
    5000    293.36769   -68.465593    872.60366     29729.36   -1377.2501    348.91487   -1028.3353   -1595.2718    794.63975   -1377.2501            0            0            0            0            0   -576.61804   -28.277199 
   10000    291.12168     24.21118    869.58692    29832.496   -1372.1851    346.24359   -1025.9415   -1590.0292    794.35637   -1372.1851            0            0            0            0            0   -576.51225    -28.17944 
   15000    289.11391    211.07073    871.84292    29755.301   -1366.0116    343.85567    -1022.156   -1590.7114    801.50822   -1366.0116            0            0            0            0            0   -576.80846   -28.252547 
   20000    288.76484   -134.43595    862.31433    30084.098   -1354.5242     343.4405   -1011.0837   -1577.7038    799.75415   -1354.5242            0            0            0            0            0   -576.57458   -27.943767 
   25000    279.53409    379.65828     879.2369    29505.073    -1386.817    332.46198    -1054.355   -1600.9543    790.94404    -1386.817            0            0            0            0            0   -576.80667   -28.492153 
   30000    304.24521    -234.0884    873.38706    29702.694   -1395.1656    361.85197   -1033.3136   -1603.6058    785.30838   -1395.1656            0            0            0            0            0   -576.86823   -28.302585 
   35000    291.88062    375.75411    881.16415     29440.54   -1385.4219    347.14623   -1038.2756   -1603.4889    794.62803   -1385.4219            0            0            0            0            0   -576.56097   -28.554606 
   40000    285.78378    179.67774     863.9754    30026.258   -1343.9318      339.895   -1004.0368   -1569.5912    802.30008   -1343.9318            0            0            0            0            0   -576.64065   -27.997595 
   45000    295.08492    178.68345    851.32256    30472.526   -1317.8385    350.95725   -966.88126   -1539.0691    797.76436   -1317.8385            0            0            0            0            0   -576.53373   -27.587573 
   50000    286.58754    544.31087      870.985     29784.61   -1352.3437    340.85095   -1011.4927   -1574.9367    799.50588   -1352.3437            0            0            0            0            0    -576.9129   -28.224745 
   55000    279.10965   -272.24227    871.94079    29751.961   -1389.1736    331.95717   -1057.2164   -1605.4134    793.12473   -1389.1736            0            0            0            0            0   -576.88493   -28.255718 
   60000    310.39424   -604.24261    872.30331    29739.597   -1398.1264    369.16528   -1028.9611   -1618.1351    796.99624   -1398.1264            0            0            0            0            0   -576.98761   -28.267466 
   65000    269.97878    66.749971    870.33756    29806.767   -1376.5813    321.09743   -1055.4839   -1600.8149    800.79177   -1376.5813            0            0            0            0            0   -576.55813   -28.203765 
   70000     291.0464    622.01298    878.09939    29543.294   -1370.5257    346.15406   -1024.3716   -1580.2517    786.44799   -1370.5257            0            0            0            0            0   -576.72197   -28.455291 
   75000    300.62852   -311.48113    875.61843    29627.002   -1395.1693    357.55049   -1037.6188   -1611.3784    792.79344   -1395.1693            0            0            0            0            0   -576.58435   -28.374894 
   80000    296.54734    24.711132    871.18964    29777.614   -1367.9812    352.69656   -1015.2847   -1593.3944    802.06295   -1367.9812            0            0            0            0            0   -576.64978   -28.231377 
   85000    299.88857    257.42671    879.50727    29496.003   -1378.5734    356.67043    -1021.903   -1601.0931    799.05868   -1378.5734            0            0            0            0            0   -576.53901   -28.500914 
   90000    291.28622   -111.47447    866.97477     29922.38   -1356.1444    346.43929   -1009.7051   -1581.6752    802.34521   -1356.1444            0            0            0            0            0   -576.81446   -28.094792 
   95000    282.01476   -170.88852     877.7568    29554.825   -1397.1331    335.41234   -1061.7208   -1614.1681    793.58062   -1397.1331            0            0            0            0            0   -576.54567   -28.444189 
  100000    304.56672    123.23521    873.58459    29695.978   -1374.6639    362.23436   -1012.4296   -1592.9662    794.98969   -1374.6639            0            0            0            0            0    -576.6874   -28.308986 
  105000    286.18604   -18.218041     875.6647    29625.436   -1384.1557    340.37343   -1043.7823   -1610.6295    803.04865   -1384.1557            0            0            0            0            0   -576.57481   -28.376394 
  110000    282.54907   -244.98061    870.61701    29797.199   -1377.6596    336.04782   -1041.6118   -1600.0237    799.11024   -1377.6596            0            0            0            0            0   -576.74617    -28.21282 
  115000    285.23224   -115.91028    867.06131    29919.394   -1364.5942    339.23903   -1025.3552   -1582.9675    794.89699   -1364.5942            0            0            0            0            0    -576.5237   -28.097596 
  120000    276.95763   -243.85296    865.71571    29965.898   -1357.6954    329.39767   -1028.2977   -1580.1046    799.08516   -1357.6954            0            0            0            0            0   -576.67599   -28.053991 
  125000    273.14267   -350.54914    861.86127    30099.912   -1354.5526    324.86038   -1029.6922   -1582.5193    804.56622   -1354.5526            0            0            0            0            0   -576.59958   -27.929086 
  130000    287.19689    86.516757    872.09724    29746.624   -1368.9756    341.57567   -1027.3999   -1586.5316    794.34399   -1368.9756            0            0            0            0            0   -576.78801   -28.260788 
  135000    298.89287    7.3040982    871.44366    29768.934   -1372.1539    355.48621   -1016.6677   -1597.6671    802.18507   -1372.1539            0            0            0            0            0   -576.67188   -28.239608 
  140000     273.3001    150.77839    880.66457    29457.241   -1398.6011    325.04762   -1073.5535   -1617.4408    795.49289   -1398.6011            0            0            0            0            0   -576.65324   -28.538417 
  145000    291.79689    74.077973    865.81212    29962.561   -1357.9798    347.04664   -1010.9332   -1581.3648    799.88723   -1357.9798            0            0            0            0            0   -576.50224   -28.057115 
  150000    308.27712    -125.6591     858.2007      30228.3   -1343.4393     366.6473   -976.79201   -1564.7362    797.92398   -1343.4393            0            0            0            0            0   -576.62713   -27.810463 
  155000    292.89331   -187.38414    880.19624    29472.915   -1406.3327    348.35067    -1057.982   -1627.5879    797.98916   -1406.3327            0            0            0            0            0   -576.73398   -28.523241 
  160000    301.54945    177.49715     876.1449    29609.199   -1385.3623    358.64578   -1026.7165   -1604.3027    795.63252   -1385.3623            0            0            0            0            0   -576.69209   -28.391955 
  165000    290.51576    163.28943     878.7257    29522.237   -1384.4271    345.52295   -1038.9042   -1605.2057    797.39163   -1384.4271            0            0            0            0            0   -576.61308   -28.475587 
  170000    264.41516   -429.65126    875.49867    29631.054   -1396.1236    314.48038   -1081.6432    -1614.306    794.73031   -1396.1236            0            0            0            0            0   -576.54794   -28.371013 
  175000    301.78432   -107.13743    883.44456    29364.546   -1416.3534    358.92513   -1057.4283   -1629.2816    789.61547   -1416.3534            0            0            0            0            0   -576.68733   -28.628504 
  180000    291.69704   -381.63863    877.84473    29551.865   -1404.3602     346.9279   -1057.4323   -1622.1162    794.58742   -1404.3602            0            0            0            0            0   -576.83139   -28.447039 
  185000    288.97327   -171.67426    884.36235    29334.072     -1410.71    343.68839   -1067.0217   -1633.1118    799.04595     -1410.71            0            0            0            0            0   -576.64415   -28.658245 
  190000    276.72453     365.9887    885.80032    29286.452   -1392.8743    329.12044   -1063.7538    -1619.089    802.95811   -1392.8743            0            0            0            0            0   -576.74334   -28.704844 
  195000    285.53097    222.50181    874.26573    29672.842   -1381.8243    339.59432   -1042.2299   -1602.7958    797.49101   -1381.8243            0            0            0            0            0   -576.51948   -28.331059 
  200000    312.33202    242.14849    874.89731    29651.421   -1379.6414    371.46996   -1008.1715   -1600.7496    797.86592   -1379.6414            0            0            0            0            0   -576.75772   -28.351526 
  205000    289.24323   -122.76587    866.21482    29948.632   -1369.2999    344.00947   -1025.2904   -1589.1488    796.65217   -1369.2999            0            0            0            0            0   -576.80324   -28.070165 
  210000    291.42393   -131.13378    858.51722    30217.156    -1342.763    346.60307   -996.15991   -1563.5476    797.47011    -1342.763            0            0            0            0            0   -576.68547    -27.82072 
  215000    285.10174   -125.91047    866.65034    29933.581   -1357.1434    339.08382   -1018.0595   -1580.0824    799.78426   -1357.1434            0            0            0            0            0   -576.84523   -28.084278 
  220000    309.68893    -107.0454    878.20845    29539.625   -1399.8756    368.32643   -1031.5492   -1618.8178    795.69347   -1399.8756            0            0            0            0            0   -576.75135   -28.458825 
  225000    276.58313   -103.24791    882.70113    29389.278   -1398.1142    328.95226    -1069.162   -1626.8862    805.55472   -1398.1142            0            0            0            0            0   -576.78279   -28.604413 
  230000    296.12818   -225.74267    877.35526    29568.351   -1407.5109    352.19804   -1055.3129   -1619.8255     789.3708   -1407.5109            0            0            0            0            0   -577.05623   -28.431177 
  235000    296.77963    139.60463    868.38166    29873.902   -1361.5029    352.97284     -1008.53   -1582.4157    797.80328   -1361.5029            0            0            0            0            0   -576.89047   -28.140383 
  240000    295.12856   -580.55852    843.67454    30748.763   -1318.8152    351.00915   -967.80606   -1541.8026    799.68834   -1318.8152            0            0            0            0            0   -576.70093   -27.339735 
  245000    296.29871   -361.82985    863.10189    30056.647   -1368.6155    352.40086   -1016.2146   -1584.4517    792.44586   -1368.6155            0            0            0            0            0   -576.60969   -27.969289 
  250000    307.16845    246.09405    881.33919    29434.693   -1399.1275    365.32871   -1033.7988   -1614.7543    792.24617   -1399.1275            0            0            0            0            0   -576.61935   -28.560278 
  255000    295.80137    1012.9201    895.65236    28964.306   -1401.4222    351.80936   -1049.6128    -1619.603    794.72545   -1401.4222            0            0            0            0            0   -576.54462   -29.024104 
  260000    296.20309   -113.39672    868.50285    29869.733    -1373.492    352.28713   -1021.2049   -1594.5992    797.70221    -1373.492            0            0            0            0            0   -576.59502    -28.14431 
  265000    280.02904    409.72776    889.90584    29151.341   -1397.4306    333.05064     -1064.38   -1620.3876    799.37622   -1397.4306            0            0            0            0            0    -576.4192   -28.837886 
  270000    308.34425    462.17137    871.77665    29757.563   -1361.9523    366.72714   -995.22515   -1584.0782    798.85649   -1361.9523            0            0            0            0            0   -576.73061   -28.250399 
  275000    287.66386   -676.78496    871.62477    29762.748   -1409.3112    342.13105   -1067.1801   -1622.0701    789.50947   -1409.3112            0            0            0            0            0   -576.75055   -28.245477 
  280000    275.29538   -7.2103463    867.02296    29920.717   -1368.8681    327.42069   -1041.4474   -1583.9916    791.70439   -1368.8681            0            0            0            0            0   -576.58093   -28.096353 
  285000    280.38457   -389.51638     860.3951    30151.205   -1355.9029    333.47348   -1022.4294   -1582.0455      802.811   -1355.9029            0            0            0            0            0   -576.66842   -27.881574 
  290000    288.97254    69.686725    874.92977    29650.321   -1371.3045    343.68753    -1027.617   -1595.8675    801.38697   -1371.3045            0            0            0            0            0   -576.82404   -28.352578 
  295000    276.65753   -109.58558    878.29672    29536.657   -1399.7013    329.04076   -1070.6606   -1610.0301    787.08229   -1399.7013            0            0            0            0            0   -576.75348   -28.461686 
  300000    291.63529    94.979863    866.77543    29929.262   -1371.2152    346.85445   -1024.3607    -1587.814     793.2766   -1371.2152            0            0            0            0            0   -576.67773   -28.088332 
  305000    279.31819   -186.64796    867.82295    29893.135   -1373.9805     332.2052   -1041.7753   -1585.4101    788.40096   -1373.9805            0            0            0            0            0   -576.97136   -28.122277 
  310000    280.36416    370.19824    888.68808    29191.287   -1404.4526    333.44921   -1071.0033   -1623.9246    796.26006   -1404.4526            0            0            0            0            0   -576.78801   -28.798423 
  315000      312.451    317.21141    883.42044    29365.348   -1397.0711    371.61147   -1025.4596    -1623.331    803.23713   -1397.0711            0            0            0            0            0   -576.97721   -28.627723 
  320000    301.81656    468.26026    886.40175    29266.581   -1387.7855    358.96348    -1028.822   -1609.9448    798.68514   -1387.7855            0            0            0            0            0   -576.52586   -28.724333 
  325000    283.87125    184.51022    860.89637    30133.649   -1345.1359    337.62034   -1007.5156    -1562.151    793.59325   -1345.1359            0            0            0            0            0   -576.57815   -27.897818 
  330000    268.99494   -510.88133     876.2971    29604.056   -1401.3431     319.9273   -1081.4158   -1627.2854    802.69034   -1401.3431            0            0            0            0            0   -576.74798   -28.396887 
  335000    271.91307   -134.47198    862.16892    30089.172   -1362.7039    323.39796    -1039.306   -1576.6651     790.8608   -1362.7039            0            0            0            0            0   -576.89964   -27.939055 
  340000    313.24143   -242.89643    877.31681    29569.647   -1392.1034    372.55157   -1019.5518   -1619.0011    803.50451   -1392.1034            0            0            0            0            0   -576.60675   -28.429931 
  345000     275.1248   -126.68692    877.00814    29580.055   -1397.8178    327.21782      -1070.6   -1613.0081    791.80084   -1397.8178            0            0            0            0            0    -576.6105   -28.419928 
  350000    293.86648   -350.54354    855.73486    30315.405     -1344.17     349.5081   -994.66189   -1561.8786    794.28453     -1344.17            0            0            0            0            0   -576.57596   -27.730556 
  355000    272.84913    -583.2904    864.61792    30003.945    -1380.726    324.51126   -1056.2148   -1605.0479    801.06511    -1380.726            0            0            0            0            0   -576.74323   -28.018416 
  360000    293.15428    57.466295    886.54228    29261.942   -1412.4074    348.66105   -1063.7464   -1634.0076    798.30273   -1412.4074            0            0            0            0            0   -576.70251   -28.728887 
  365000    271.15142    51.988271    876.37849    29601.307   -1389.0206     322.4921   -1066.5285   -1605.3558    792.99333   -1389.0206            0            0            0            0            0   -576.65814   -28.399524 
  370000    288.17014    91.104124     864.2512    30016.676   -1353.5308    342.73319   -1010.7976   -1571.7711    794.97558   -1353.5308            0            0            0            0            0   -576.73527   -28.006533 
  375000    300.74907   -601.66396    865.86663    29960.675   -1385.6496    357.69386   -1027.9557   -1607.3555    798.26072   -1385.6496            0            0            0            0            0   -576.55478   -28.058882 
  380000     277.8786    205.79259    885.65586    29291.229    -1405.984    330.49303   -1075.4909   -1629.3014    800.26248    -1405.984            0            0            0            0            0   -576.94506   -28.700162 
  385000     268.4681   -319.51839    877.42888     29565.87   -1396.6341    319.30071   -1077.3334   -1619.8432    799.85842   -1396.6341            0            0            0            0            0   -576.64927   -28.433563 
  390000    288.56365   -238.85354    871.13541    29779.468   -1377.5266    343.20122   -1034.3254   -1600.8847    799.96305   -1377.5266            0            0            0            0            0   -576.60494   -28.229619 
  395000    307.23994    188.93625     870.0207    29817.622   -1373.5501    365.41374   -1008.1364   -1588.9494    792.02422   -1373.5501            0            0            0            0            0   -576.62495   -28.193497 
  400000    305.48696   -154.02695    867.61817    29900.191   -1374.8023    363.32884   -1011.4734   -1596.5662    798.22572   -1374.8023            0            0            0            0            0   -576.46178   -28.115641 
  405000    297.77036    38.915064    863.00839    30059.903   -1356.8358    354.15116   -1002.6846   -1576.0444    795.84254   -1356.8358            0            0            0            0            0   -576.63392   -27.966259 
  410000    301.42752   -218.45936    869.51103      29835.1   -1373.8753    358.50078   -1015.3746     -1597.32    800.05836   -1373.8753            0            0            0            0            0   -576.61366   -28.176981 
  415000    309.43703    168.75181    879.99219    29479.749    -1399.667    368.02684   -1031.6401   -1612.4038    789.26231    -1399.667            0            0            0            0            0   -576.52546   -28.516628 
  420000    299.10719   -398.50061    866.07161    29953.584    -1367.601     355.7411   -1011.8599   -1591.7452     800.8449    -1367.601            0            0            0            0            0   -576.70073   -28.065524 
  425000     285.3135   -298.40626    865.52155     29972.62   -1346.0512    339.33567   -1006.7155   -1583.5575    814.18922   -1346.0512            0            0            0            0            0    -576.6829   -28.047699 
  430000    285.69159   -321.47369    864.25374    30016.588   -1359.5351    339.78535   -1019.7498   -1580.4977    797.88068   -1359.5351            0            0            0            0            0   -576.91808   -28.006615 
  435000    287.90677   -450.02429     871.0299    29783.075    -1381.319    342.41996    -1038.899   -1602.6709    798.20341    -1381.319            0            0            0            0            0   -576.85145     -28.2262 
  440000    286.28875    345.71497    874.05789    29679.897   -1365.5806    340.49559   -1025.0851   -1587.7268    799.06859   -1365.5806            0            0            0            0            0    -576.9224   -28.324324 
  445000    310.05655   -459.91402    876.77394    29587.956   -1409.3333    368.76365   -1040.5696   -1624.3918    791.77344   -1409.3333            0            0            0            0            0   -576.71495   -28.412339 
  450000    288.78051   -410.78972     865.8165     29962.41   -1370.7965    343.45914   -1027.3373    -1592.503    798.51539   -1370.7965            0            0            0            0            0   -576.80884   -28.057257 
  455000    280.95851    653.40402    902.84719    28733.488   -1435.7257     334.1561   -1101.5696   -1650.1167    791.10213   -1435.7257            0            0            0            0            0   -576.71113   -29.257257 
  460000    282.41645   -596.02418    852.71818    30422.652   -1350.1755    335.89009   -1014.2854    -1568.693    795.34165   -1350.1755            0            0            0            0            0   -576.82421   -27.632799 
  465000    286.13467   -420.06988    867.29193    29911.438   -1374.3377    340.31233   -1034.0254   -1596.8173    799.31668   -1374.3377            0            0            0            0            0   -576.83711   -28.105069 
  470000    286.65657    206.94054    859.10195    30196.589   -1333.5481    340.93304   -992.61501   -1556.2316    799.32467   -1333.5481            0            0            0            0            0    -576.6411   -27.839668 
  475000    281.64641   -133.99132    877.69913    29556.767   -1397.2498    334.97425   -1062.2755   -1608.9145    788.61793   -1397.2498            0            0            0            0            0   -576.95321    -28.44232 
  480000    295.88413   -93.377625    883.16127    29373.965   -1405.9238    351.90778    -1054.016   -1629.7924    800.59348   -1405.9238            0            0            0            0            0   -576.72479   -28.619324 
  485000    285.86639    163.78573    886.94416    29248.683   -1409.5707    339.99325   -1069.5774   -1630.2583    797.46983   -1409.5707            0            0            0            0            0   -576.78217   -28.741911 
  490000    303.54436    194.21015     887.6936     29223.99   -1412.3848    361.01843   -1051.3663   -1634.1709     798.3308   -1412.3848            0            0            0            0            0   -576.54463   -28.766197 
  495000    285.49201    300.36693    886.73571    29255.559   -1402.7364    339.54798   -1063.1885   -1622.7603    796.60861   -1402.7364            0            0            0            0            0   -576.58475   -28.735156 
  500000    280.61513    140.32479    855.73189     30315.51    -1325.718     333.7477    -991.9703   -1548.5157    799.58717    -1325.718            0            0            0            0            0   -576.78951    -27.73046 
  505000    291.89319   -267.97377    872.53234    29731.791   -1388.0093    347.16118   -1040.8482   -1610.9232    799.44255   -1388.0093            0            0            0            0            0   -576.52867   -28.274888 
  510000      303.229   -393.15386    860.40622    30150.815    -1358.463    360.64335   -997.81962   -1577.9001    796.06467    -1358.463            0            0            0            0            0   -576.62758   -27.881934 
  515000    296.80477    455.80904    863.72481     30034.97   -1333.0742    353.00274   -980.07142   -1557.6773    801.31662   -1333.0742            0            0            0            0            0    -576.7135   -27.989475 
  520000    292.24993    75.083845    870.64122    29796.371   -1374.6212    347.58547   -1027.0357   -1593.2063    795.42431   -1374.6212            0            0            0            0            0   -576.83919   -28.213605 
  525000    281.65253   -489.67283    865.30107    29980.257   -1369.9106    334.98153   -1034.9291   -1596.6889    803.44591   -1369.9106            0            0            0            0            0   -576.66763   -28.040554 
  530000    310.31641   -8.0339711    872.33023    29738.679   -1374.1589    369.07271   -1005.0862   -1598.7665    801.04641   -1374.1589            0            0            0            0            0   -576.43876   -28.268338 
  535000    295.96794     91.18161    885.33871    29301.722   -1416.4152    352.00747   -1064.4077   -1626.1284    786.49406   -1416.4152            0            0            0            0            0   -576.78085   -28.689885 
  540000    289.68597   -47.129744    877.89614    29550.134   -1399.3419    344.53604   -1054.8059   -1618.9098    796.36683   -1399.3419            0            0            0            0            0   -576.79896   -28.448704 
  545000     279.7624   -189.72328    874.30062    29671.658   -1389.3573    332.73351   -1056.6238   -1604.6868    792.13041   -1389.3573            0            0            0            0            0   -576.80091    -28.33219 
  550000    295.16651    351.87087    876.15534    29608.846   -1377.2178    351.05428   -1026.1635   -1596.2376    795.86331   -1377.2178            0            0            0            0            0   -576.84359   -28.392293 
  555000    283.33345   -228.90375    865.86362    29960.779   -1368.5558    336.98072   -1031.5751   -1588.4554    796.75981   -1368.5558            0            0            0            0            0   -576.86021   -28.058784 
  560000    298.42383    198.52881    866.37743    29943.011   -1357.4057    354.92836   -1002.4774   -1576.1495    795.31583   -1357.4057            0            0            0            0            0   -576.57203   -28.075434 
  565000    285.25923    130.22263    869.84054    29823.798   -1360.1484    339.27113   -1020.8773   -1579.7913    796.66459   -1360.1484            0            0            0            0            0    -577.0217   -28.187658 
  570000    285.95796    294.66104    883.60209    29359.311   -1399.9124    340.10216   -1059.8103   -1612.1091    789.04199   -1399.9124            0            0            0            0            0    -576.8453   -28.633609 
  575000    290.23705    145.50585    879.60791    29492.628   -1386.2866    345.19147   -1041.0952   -1606.2049    796.61896   -1386.2866            0            0            0            0            0   -576.70071   -28.504175 
  580000    290.45999   -317.15178    872.56883    29730.547   -1392.8288    345.45661   -1047.3722   -1609.3308     793.0287   -1392.8288            0            0            0            0            0   -576.52673    -28.27607 
  585000    284.55557    -368.7715    876.96883    29581.381   -1407.6464    338.43424   -1069.2122   -1621.2552    790.13012   -1407.6464            0            0            0            0            0   -576.52133   -28.418654 
  590000    288.06938       180.41    873.64476    29693.933   -1379.8565    342.61336   -1037.2431   -1599.7719    796.90455   -1379.8565            0            0            0            0            0   -576.98914   -28.310936 
  595000    303.86815   -750.76143    857.48899     30253.39    -1365.705    361.40352   -1004.3015   -1582.8795    793.77303    -1365.705            0            0            0            0            0   -576.59854     -27.7874 
  600000    291.28331    267.09511    874.73526    29656.914   -1368.1603    346.43583   -1021.7244   -1593.8778    802.44323   -1368.1603            0            0            0            0            0   -576.72569   -28.346275 
  605000    286.80623    299.95438    874.07005    29679.485   -1371.4504    341.11104   -1030.3393   -1589.9467    795.24374   -1371.4504            0            0            0            0            0   -576.74743   -28.324718 
  610000    292.24481    280.46523    891.62581    29095.107   -1415.9772    347.57938   -1068.3978   -1630.8907    791.71629   -1415.9772            0            0            0            0            0   -576.80279   -28.893622 
  615000    304.04365    239.17771    885.35101    29301.315   -1397.9912    361.61224    -1036.379   -1619.4717    797.78067   -1397.9912            0            0            0            0            0   -576.30022   -28.690284 
  620000    259.01349    52.168253    862.17632    30088.913   -1336.9981    308.05594   -1028.9422   -1559.9413      799.615   -1336.9981            0            0            0            0            0   -576.67182   -27.939295 
  625000    286.39179   -432.41313     858.7193    30210.045   -1349.3637    340.61813   -1008.7456   -1578.2607    805.65499   -1349.3637            0            0            0            0            0   -576.75794   -27.827268 
  630000    273.12173    145.62574    872.72479    29725.234    -1367.533    324.83547   -1042.6975    -1591.291    800.26954    -1367.533            0            0            0            0            0   -576.51153   -28.281124 
  635000    265.86532    -268.7247    874.18822    29675.473   -1383.5964    316.20512   -1067.3913   -1606.9909    799.84515   -1383.5964            0            0            0            0            0   -576.45067   -28.328547 
  640000    297.17541    1.6278014    876.96949    29581.358   -1389.2532    353.44356   -1035.8096   -1605.7425    793.07093   -1389.2532            0            0            0            0            0    -576.5816   -28.418676 
  645000    283.93211    24.490481    876.38582    29601.059   -1391.0477    337.69273    -1053.355   -1601.3111    786.75511   -1391.0477            0            0            0            0            0   -576.49176   -28.399762 
  650000    311.45572     329.9044    868.41489    29872.759   -1355.5065    370.42775   -985.07877   -1572.7983    794.10851   -1355.5065            0            0            0            0            0   -576.81669   -28.141459 
  655000    280.12236   -375.52545    874.48603    29665.367   -1398.5252    333.16162   -1065.3636   -1612.5941    790.88519   -1398.5252            0            0            0            0            0   -576.81629   -28.338198 
  660000    296.27983    300.66384    877.04285    29578.884   -1363.4791     352.3784   -1011.1007   -1591.2623    804.24904   -1363.4791            0            0            0            0            0   -576.46587   -28.421053 
  665000    276.29409   -282.73056    870.82361     29790.13   -1384.3911     328.6085   -1055.7826   -1602.2842     794.5114   -1384.3911            0            0            0            0            0   -576.61832   -28.219515 
  670000    298.64497    395.28602    880.61224    29458.992   -1385.0584    355.19137    -1029.867   -1607.1062    798.71569   -1385.0584            0            0            0            0            0   -576.66787   -28.536721 
  675000    280.86819   -274.23807    886.57327    29260.919   -1427.2023    334.04867   -1093.1536   -1645.1843    794.47966   -1427.2023            0            0            0            0            0   -576.49765   -28.729892 
  680000    293.73233   -430.58585    866.38855    29942.626   -1378.3959    349.34855   -1029.0474    -1591.856    790.10993   -1378.3959            0            0            0            0            0    -576.6499   -28.075795 
  685000    302.71029   -158.53128    878.48905     29530.19     -1410.96    360.02643   -1050.9335   -1621.2948    787.03713     -1410.96            0            0            0            0            0   -576.70229   -28.467918 
  690000    278.14483   -115.87434    880.09864    29476.183   -1406.6246    330.80966    -1075.815   -1618.6463    788.70857   -1406.6246            0            0            0            0            0   -576.68696   -28.520078 
  695000    294.87878   -576.06825    860.39798    30151.104   -1365.4336    350.71208   -1014.7215   -1580.6931     791.6805   -1365.4336            0            0            0            0            0   -576.42092   -27.881667 
  700000    294.28473     48.50737    869.60404    29831.909   -1366.5653    350.00554   -1016.5598   -1588.9352    799.10266   -1366.5653            0            0            0            0            0   -576.73276   -28.179994 
  705000    277.92317    263.46233    870.68951    29794.718   -1349.9988    330.54603   -1019.4528   -1581.8854    808.57095   -1349.9988            0            0            0            0            0   -576.68441    -28.21517 
  710000    292.56196   -57.852143    880.73248     29454.97   -1400.4905    347.95659   -1052.5339   -1622.6902    798.75829   -1400.4905            0            0            0            0            0   -576.55858   -28.540618 
  715000    307.21188    271.43883    866.00601    29955.853   -1355.7691    365.38037   -990.38876   -1579.8634    800.69332   -1355.7691            0            0            0            0            0    -576.5991   -28.063398 
  720000     293.7924    282.97947    885.60217    29293.005   -1408.4542    349.41999   -1059.0342     -1622.33    790.31382   -1408.4542            0            0            0            0            0   -576.43799   -28.698423 
  725000    293.72599   -213.42323     868.9566    29854.136   -1376.6724    349.34102   -1027.3313   -1597.1777    797.22129   -1376.6724            0            0            0            0            0   -576.71589   -28.159014 
  730000    281.95112    29.400711    873.78935    29689.019   -1378.5333    335.33665   -1043.1967   -1600.2921    798.49064   -1378.5333            0            0            0            0            0    -576.7319   -28.315622 
  735000    300.01287    194.63111    874.74942    29656.434   -1367.0048    356.81827   -1010.1865   -1593.8963    803.56851   -1367.0048            0            0            0            0            0   -576.67702   -28.346733 
  740000    296.82117    39.782928    873.80681    29688.426   -1382.6342    353.02224    -1029.612   -1602.3124    796.46853   -1382.6342            0            0            0            0            0   -576.79031   -28.316188 
  745000    298.27936    228.08867    864.07319     30022.86   -1344.4366    354.75653    -989.6801   -1565.2873     797.6512   -1344.4366            0            0            0            0            0   -576.80055   -28.000764 
  750000    280.71652    244.31846    868.95472    29854.201   -1354.7747    333.86829   -1020.9065   -1577.0379    798.86309   -1354.7747            0            0            0            0            0   -576.59989   -28.158953 
  755000    263.49495   -534.49099    867.77872    29894.659   -1386.6029    313.38593    -1073.217   -1606.6589    796.64694   -1386.6029            0            0            0            0            0   -576.59092   -28.120844 
  760000    280.80558    293.30655    882.17609    29406.769   -1390.3338    333.97421   -1056.3596   -1615.3457    801.62422   -1390.3338            0            0            0            0            0   -576.61233   -28.587399 
  765000    288.25922   -147.72853    879.04239    29511.602   -1396.3636    342.83914   -1053.5244   -1618.3656    798.51948   -1396.3636            0            0            0            0            0   -576.51743   -28.485849 
  770000    283.58934    13.729166    874.78282    29655.302   -1380.4708    337.28506   -1043.1857   -1602.5246    798.78899   -1380.4708            0            0            0            0            0   -576.73518   -28.347816 
  775000    305.25994    266.41293    887.99807    29213.969   -1401.0695    363.05884   -1038.0106   -1625.8625    801.26617   -1401.0695            0            0            0            0            0   -576.47317   -28.776063 
  780000    291.15591    108.86233    879.66298    29490.781   -1385.9226     346.2843   -1039.6383   -1608.5998    799.28357   -1385.9226            0            0            0            0            0   -576.60643    -28.50596 
  785000    271.59332   -261.22091    866.32927    29944.675   -1364.0082    323.01767   -1040.9905   -1581.1199    794.04031   -1364.0082            0            0            0            0            0   -576.92867   -28.073874 
  790000    273.64812    111.69595    858.30709    30224.554   -1337.1654    325.46153   -1011.7039   -1559.2017    798.78526   -1337.1654            0            0            0            0            0   -576.74895   -27.813911 
  795000    298.03028   -350.52273    865.12195    29986.465   -1370.0907    354.46029   -1015.6304    -1593.485    800.05442   -1370.0907            0            0            0            0            0   -576.66015    -28.03475 
  800000    304.83322    86.029167     872.8233    29721.879   -1374.1143    362.55132    -1011.563    -1600.371     802.6409   -1374.1143            0            0            0            0            0   -576.38426   -28.284316 
  805000    286.79637   -318.07784    872.87475    29720.127   -1402.0329    341.09931   -1060.9336   -1621.8573    796.62119   -1402.0329            0            0            0            0            0   -576.79684   -28.285984 
  810000    296.27378    151.74688    871.15429    29778.822   -1372.8342    352.37121    -1020.463   -1591.0328    794.79432   -1372.8342            0            0            0            0            0   -576.59567   -28.230231 
  815000    283.04632    140.41849    877.28774    29570.627   -1395.4205    336.63922   -1058.7813   -1605.4982     786.9124   -1395.4205            0            0            0            0            0   -576.83475   -28.428989 
  820000    314.10037    550.39725    871.45177    29768.657   -1357.5773    373.57314   -984.00413   -1576.9181     796.0599   -1357.5773            0            0            0            0            0   -576.71912   -28.239871 
  825000    295.83261    397.81161    854.03908    30375.599   -1313.4983    351.84651   -961.65179   -1530.4428     793.7374   -1313.4983            0            0            0            0            0   -576.79287   -27.675603 
  830000    287.93563    234.40644    873.53569     29697.64    -1374.272    342.45429   -1031.8178   -1600.3502    802.78091    -1374.272            0            0            0            0            0   -576.70271   -28.307402 
  835000    288.66395    281.43063    874.20014    29675.068   -1372.3573    343.32051   -1029.0368   -1597.7774    801.73671   -1372.3573            0            0            0            0            0   -576.31667   -28.328934 
  840000    312.07766   -375.06185    859.40598    30185.907   -1362.4773    371.16744   -991.30989   -1579.1649    793.35338   -1362.4773            0            0            0            0            0   -576.66581   -27.849521 
  845000     280.5736    236.07954    873.57678    29696.243   -1372.1952    333.69831   -1038.4969   -1598.4899    802.64668   -1372.1952            0            0            0            0            0   -576.35195   -28.308733 
  850000    281.08717    228.55591     881.6535      29424.2   -1391.4816    334.30911   -1057.1725   -1609.8263    795.18184   -1391.4816            0            0            0            0            0   -576.83712   -28.570464 
  855000    293.97012   -34.649889     865.0897    29987.582   -1353.7126    349.63137   -1004.0812   -1580.9982    803.70424   -1353.7126            0            0            0            0            0    -576.4186   -28.033705 
  860000    295.34325    108.75623    884.45115    29331.126   -1402.6183    351.26449   -1051.3538   -1626.9984    800.77572   -1402.6183            0            0            0            0            0   -576.39562   -28.661123 
  865000    294.60233   -330.97269    871.50206    29766.939   -1380.4608    350.38328   -1030.0775   -1606.6833    802.64116   -1380.4608            0            0            0            0            0   -576.41866   -28.241501 
  870000    294.71652    343.30264    879.81317    29485.747   -1388.5023    350.51909   -1037.9832   -1599.8254    788.06378   -1388.5023            0            0            0            0            0   -576.74068   -28.510827 
  875000    280.30785   -558.36014    871.69124    29760.479   -1386.1615    333.38224   -1052.7793   -1607.7349    798.26587   -1386.1615            0            0            0            0            0   -576.69251   -28.247631 
  880000    295.12731    277.95427    881.22535    29438.496      -1375.2    351.00766   -1024.1923   -1602.4833     803.8002      -1375.2            0            0            0            0            0   -576.51691   -28.556589 
  885000    300.89914   -111.49077    871.02042    29783.399   -1370.2451    357.87235   -1012.3728   -1591.8791     798.5904   -1370.2451            0            0            0            0            0   -576.95647   -28.225893 
  890000    300.55905    527.29537    872.24228    29741.678   -1349.2921    357.46787   -991.82419   -1576.3047    803.83541   -1349.2921            0            0            0            0            0   -576.82281   -28.265488 
  895000    277.30318    549.47482    883.20562     29372.49   -1385.8302    329.80866   -1056.0216   -1608.8222    799.51173   -1385.8302            0            0            0            0            0   -576.51975   -28.620761 
  900000    294.57832    47.688773    849.77541    30528.006   -1311.9524    350.35473   -961.59769   -1537.9966    802.87994   -1311.9524            0            0            0            0            0   -576.83577   -27.537437 
  905000    285.86903    323.92001    869.54808    29833.829   -1362.5963    339.99639   -1022.5999   -1581.4863    795.70602   -1362.5963            0            0            0            0            0   -576.81604   -28.178181 
  910000    309.26054   -393.59906    863.99296    30025.648   -1358.2494    367.81692   -990.43252   -1584.6957    802.97113   -1358.2494            0            0            0            0            0   -576.52492   -27.998164 
  915000    299.81931    432.05358    874.40618    29668.076   -1363.8759    356.58806   -1007.2878   -1579.7695    792.60763   -1363.8759            0            0            0            0            0   -576.71398   -28.335611 
  920000    308.75805    254.22169    891.07237    29113.178   -1412.6704     367.2193   -1045.4511   -1628.3998    792.34236   -1412.6704            0            0            0            0            0   -576.61297   -28.875687 
  925000    294.47221   -151.96999    858.20399    30228.184    -1349.309    350.22852    -999.0805   -1571.9446    799.48916    -1349.309            0            0            0            0            0   -576.85353    -27.81057 
  930000    293.87424   -16.070654    875.27614    29638.588   -1399.5899    349.51734   -1050.0726   -1617.6783    794.77434   -1399.5899            0            0            0            0            0    -576.6859   -28.363802 
  935000    284.67134    427.37819    884.19996    29339.459   -1389.6482    338.57192   -1051.0762   -1612.2428    799.13428   -1389.6482            0            0            0            0            0   -576.53965   -28.652983 
  940000    281.02522    275.75042     888.3549    29202.235   -1413.4254    334.23544     -1079.19   -1635.1299    798.28758   -1413.4254            0            0            0            0            0   -576.58315   -28.787626 
  945000    287.58298   -60.517388    868.22215    29879.391   -1357.6892    342.03487   -1015.6543   -1584.5316    803.46758   -1357.6892            0            0            0            0            0   -576.62517   -28.135214 
  950000    271.55565     254.8202     877.7011    29556.701   -1373.3871    322.97286   -1050.4143   -1601.9784    805.13883   -1373.3871            0            0            0            0            0   -576.54756   -28.442384 
  955000    290.64553    267.61964    871.70884    29759.878   -1361.1693    345.67729    -1015.492   -1584.8073    800.19209   -1361.1693            0            0            0            0            0   -576.55401   -28.248202 
  960000    297.34309    111.23485    881.03544    29444.841   -1411.7069    353.64298   -1058.0639   -1622.8773    788.03636   -1411.7069            0            0            0            0            0   -576.86602   -28.550435 
  965000    280.67608   -371.36397    864.42886    30010.507   -1367.0473     333.8202   -1033.2271   -1587.8003    797.35309   -1367.0473            0            0            0            0            0    -576.6001    -28.01229 
  970000    307.14454    339.87883    880.11798    29475.535   -1384.1913    365.30027    -1018.891   -1601.9988     794.4766   -1384.1913            0            0            0            0            0   -576.66909   -28.520704 
  975000    299.68248   -186.59932    861.69543    30105.705   -1355.6453    356.42532   -999.22002   -1578.7516    799.73629   -1355.6453            0            0            0            0            0   -576.63004   -27.923712 
  980000    285.28445   -190.01834    877.38959    29567.194   -1392.8052    339.30112   -1053.5041   -1614.8836    798.77963   -1392.8052            0            0            0            0            0   -576.70124    -28.43229 
  985000    294.18861    567.33498    858.35453    30222.883    -1319.245    349.89123   -969.35379   -1543.2952    800.72646    -1319.245            0            0            0            0            0   -576.67631   -27.815448 
  990000    301.21916   -382.42364    858.72888    30209.708   -1363.7991    358.25296   -1005.5461   -1587.2841    800.12231   -1363.7991            0            0            0            0            0   -576.63723   -27.827579 
  995000    297.42648    90.055643    873.88258    29685.852   -1377.9619    353.74216   -1024.2197   -1606.9621    805.61986   -1377.9619            0            0            0            0            0   -576.61963   -28.318643 
 1000000    299.98872   -334.86372     873.1138     29711.99   -1390.1014    356.78954   -1033.3118   -1615.4228    801.95783   -1390.1014            0            0            0            0            0   -576.63639    -28.29373 
 1005000    291.71001   -208.34651     871.6601    29761.542   -1377.1179    346.94332   -1030.1745   -1603.3262    802.96383   -1377.1179            0            0            0            0            0   -576.75555   -28.246622 
 1010000    272.66421    684.28196    889.14474    29176.294   -1392.0393    324.29133    -1067.748   -1612.5717    797.28879   -1392.0393            0            0            0            0            0   -576.75642   -28.813222 
 1015000    264.35597    384.65922    876.68675    29590.898   -1365.6018    314.40998   -1051.1919   -1587.3658    798.23213   -1365.6018            0            0            0            0            0   -576.46816   -28.409514 
 1020000    281.86657    118.68188    888.22631    29206.463   -1426.2942     335.2361   -1091.0581   -1643.1981    793.55485   -1426.2942            0            0            0            0            0   -576.65089   -28.783459 
 1025000    288.10033    147.46619    858.25257    30226.474   -1334.4444    342.65017    -991.7942   -1556.7332    798.64504   -1334.4444            0            0            0            0            0   -576.35625   -27.812144 
 1030000    301.06998   -390.80552     857.9159    30238.335   -1360.2334    358.07554   -1002.1578    -1585.219    801.95533   -1360.2334            0            0            0            0            0   -576.96965   -27.801234 
 1035000    265.31945    213.03417    863.52323    30041.981    -1339.051    315.55588   -1023.4951   -1566.7714    804.17538    -1339.051            0            0            0            0            0   -576.45494   -27.982942 
 1040000    274.22678    171.95481    865.43319     29975.68   -1358.4111    326.14976   -1032.2613   -1574.8953    792.88938   -1358.4111            0            0            0            0            0   -576.40515   -28.044836 
 1045000    274.94102    201.15778    881.89011    29416.305   -1395.4186    326.99923   -1068.4194    -1609.811     791.0774   -1395.4186            0            0            0            0            0   -576.68503   -28.578131 
 1050000    285.33792   -178.35125    874.02219     29681.11   -1379.9566    339.36472   -1040.5919   -1601.7228    798.62845   -1379.9566            0            0            0            0            0   -576.86219   -28.323167 
 1055000    286.77897    299.32979    879.84648    29484.631   -1388.9748    341.07862   -1047.8961   -1604.9769    792.71546   -1388.9748            0            0            0            0            0   -576.71331   -28.511906 
 1060000    289.64662   -219.27533    869.80256      29825.1   -1375.3469    344.48925   -1030.8576   -1602.1783    803.60356   -1375.3469            0            0            0            0            0    -576.7721   -28.186428 
 1065000    291.49883    463.79212    862.06254    30092.885   -1331.0612    346.69216   -984.36907   -1560.2215    805.90107   -1331.0612            0            0            0            0            0    -576.7408   -27.935608 
 1070000    292.61941    261.96359    874.06363    29679.703   -1354.9864     348.0249   -1006.9615   -1582.5743    804.20676   -1354.9864            0            0            0            0            0   -576.61888    -28.32451 
 1075000    288.84889    76.368679    868.09225    29883.862   -1357.2563    343.54046   -1013.7158   -1575.6845    795.05606   -1357.2563            0            0            0            0            0   -576.62786   -28.131004 
 1080000    294.99699    119.05403     864.1117    30021.522   -1344.5307    350.85267   -993.67806   -1565.3326     797.3024   -1344.5307            0            0            0            0            0   -576.50056   -28.002012 
 1085000    289.69161    280.83154     881.5114    29428.943   -1387.0125    344.54276   -1042.4698   -1608.9782    798.55329   -1387.0125            0            0            0            0            0   -576.58758   -28.565859 
 1090000    283.90955   -320.13795     861.7914    30102.353    -1350.194    337.66589   -1012.5281   -1569.6762    796.25537    -1350.194            0            0            0            0            0   -576.77321   -27.926821 
 1095000    271.81028   -147.96047    866.14193    29951.152   -1357.5627    323.27571    -1034.287   -1576.0195    795.32215   -1357.5627            0            0            0            0            0   -576.86537   -28.067803 
 1100000    298.62323    182.39415    871.56821     29764.68   -1368.3546    355.16551   -1013.1891   -1593.7193    802.21997   -1368.3546            0            0            0            0            0   -576.85534   -28.243644 
 1105000    278.48688    48.821129    862.38862    30081.506   -1354.5686    331.21648   -1023.3521   -1571.8318    793.88548   -1354.5686            0            0            0            0            0    -576.6222   -27.946175 
 1110000    285.98194   -351.18199    865.36954    29977.885   -1362.3906    340.13068   -1022.2599   -1584.9536    799.26211   -1362.3906            0            0            0            0            0    -576.6991   -28.042773 
 1115000    301.51785   -426.35972    875.32621    29636.892   -1408.7715     358.6082   -1050.1633   -1627.5788    795.72846   -1408.7715            0            0            0            0            0   -576.92111   -28.365425 
 1120000    307.17784   -136.89189    865.75612    29964.499    -1359.659    365.33987   -994.31917   -1582.8786    800.01143    -1359.659            0            0            0            0            0   -576.79185     -28.0553 
 1125000    287.44295   -260.19683    867.73008    29896.334   -1383.1608    341.86832   -1041.2925   -1595.7204    789.24046   -1383.1608            0            0            0            0            0   -576.68094   -28.119268 
 1130000    270.15119    265.00076    871.35514    29771.958   -1370.0914    321.30248   -1048.7889   -1583.0973    789.62731   -1370.0914            0            0            0            0            0   -576.62135    -28.23674 
 1135000    298.71339    540.12187    874.56876    29662.561    -1357.169    355.27274   -1001.8963    -1578.795    798.44172    -1357.169            0            0            0            0            0   -576.81573   -28.340879 
 1140000    286.15712     -20.7631     874.6285    29660.534    -1382.016    340.33903    -1041.677    -1606.704    801.46911    -1382.016            0            0            0            0            0   -576.78112   -28.342815 
 1145000    271.82226   -476.76445    876.48782    29597.615   -1401.9215    323.28996   -1078.6316    -1622.034    796.58059   -1401.9215            0            0            0            0            0   -576.46815   -28.403067 
 1150000    269.14068   -208.38082    866.86138    29926.294   -1375.1261    320.10064   -1055.0255   -1588.6496    790.26152   -1375.1261            0            0            0            0            0   -576.73802   -28.091117 
 1155000     285.9057    34.443865    882.82486    29385.159   -1400.9992       340.04   -1060.9592   -1619.1288    794.90443   -1400.9992            0            0            0            0            0   -576.77483   -28.608423 
 1160000    285.88022    239.54922    878.29476    29536.723   -1389.0489     340.0097   -1049.0392   -1608.4751    796.25172   -1389.0489            0            0            0            0            0   -576.82551   -28.461622 
 1165000    322.38312    35.001919    869.75306    29826.798    -1364.462    383.42418   -981.03785   -1586.3324    798.65606    -1364.462            0            0            0            0            0    -576.7857   -28.184824 
 1170000    316.49812   -512.39168    853.49058     30395.12   -1342.4552    376.42489   -966.03031    -1571.906    806.06605   -1342.4552            0            0            0            0            0   -576.61524   -27.657829 
 1175000    291.39798    444.00704    875.33286    29636.667   -1372.5547    346.57221   -1025.9825   -1590.5685     794.6391   -1372.5547            0            0            0            0            0   -576.62529    -28.36564 
 1180000    281.65989   -302.81656    869.20532    29845.593   -1385.5163    334.99028   -1050.5261   -1598.9475    790.01777   -1385.5163            0            0            0            0            0   -576.58665   -28.167074 
 1185000    295.38204   -135.00218    873.56806     29696.54    -1372.647    351.31062   -1021.3364    -1601.889    805.92034    -1372.647            0            0            0            0            0   -576.67836   -28.308451 
 1190000    282.28616    243.69201    884.66416    29324.064   -1401.8781    335.73512    -1066.143   -1617.5139    792.32496   -1401.8781            0            0            0            0            0   -576.68921   -28.668026 
 1195000    277.14699    -216.8101    869.02494    29851.788   -1368.9199    329.62289    -1039.297     -1595.21     802.8585   -1368.9199            0            0            0            0            0   -576.56836   -28.161228 
 1200000    291.05043     376.6388    885.86161    29284.426   -1399.2001    346.15885   -1053.0413   -1614.8525    792.21794   -1399.2001            0            0            0            0            0   -576.56556    -28.70683 
 1205000    301.58399    411.52913    882.77183    29386.924   -1392.2783    358.68688   -1033.5915   -1608.4125    792.91311   -1392.2783            0            0            0            0            0   -576.77899   -28.606704 
 1210000    288.76767     568.3391    878.98248    29513.613   -1368.1359    343.44386    -1024.692    -1590.962    799.54976   -1368.1359            0            0            0            0            0   -576.72364   -28.483908 
 1215000    276.51273   -98.300058    859.63189    30177.974   -1347.3873    328.86854   -1018.5188   -1569.9292    799.27552   -1347.3873            0            0            0            0            0   -576.73361   -27.856842 
 1220000     295.1711    40.547247    866.06509     29953.81   -1356.4398    351.05974   -1005.3801   -1580.3881    800.57403   -1356.4398            0            0            0            0            0   -576.62576   -28.065313 
 1225000     276.3907   -47.335443    862.63553    30072.896   -1347.7424     328.7234   -1019.0191   -1570.3934    799.34572   -1347.7424            0            0            0            0            0   -576.69478   -27.954176 
 1230000     269.5124   -44.330234    884.64241    29324.785   -1419.6957    320.54275   -1099.1529   -1637.1851    794.34081   -1419.6957            0            0            0            0            0   -576.85135   -28.667321 
 1235000    301.24877   -155.22607    859.30827    30189.339   -1356.5136    358.28817   -998.22541   -1571.8672    792.00276   -1356.5136            0            0            0            0            0    -576.6491   -27.846354 
 1240000    266.23604   -177.99412    863.28973    30050.107   -1367.4311    316.64603   -1050.7851   -1590.1725    799.39758   -1367.4311            0            0            0            0            0    -576.6562   -27.975376 
 1245000     298.7582   -169.08504    850.91847    30486.997    -1326.032    355.32603   -970.70602   -1548.3045    798.93043    -1326.032            0            0            0            0            0   -576.65799   -27.574478 
 1250000    301.12236    290.47893    885.12871    29308.674   -1402.3619    358.13784    -1044.224   -1628.5881    802.77686   -1402.3619            0            0            0            0            0   -576.55064    -28.68308 
 1255000    288.95682    341.22856    887.25936    29238.292   -1405.8879    343.66883   -1062.2191    -1625.863    796.78048   -1405.8879            0            0            0            0            0   -576.80544   -28.752125 
 1260000    286.36403    195.67554    862.72144    30069.901   -1339.9573    340.58511   -999.37217   -1570.4778    807.05167   -1339.9573            0            0            0            0            0   -576.53115    -27.95696 
 1265000    290.77389    317.32047    882.63608    29391.444   -1398.3017    345.82995   -1052.4718   -1614.4046    792.90945   -1398.3017            0            0            0            0            0   -576.80661   -28.602305 
 1270000    282.72834    146.27516    874.73313    29656.986   -1378.1979    336.26103   -1041.9369   -1596.4668    794.74349   -1378.1979            0            0            0            0            0   -576.47461   -28.346206 
 1275000    315.66363    33.313519    858.87356    30204.619   -1334.4805    375.43239   -959.04808   -1558.1745    800.26612   -1334.4805            0            0            0            0            0   -576.57205   -27.832267 
 1280000    260.19387    48.786905    872.23435    29741.948   -1379.0223    309.45981   -1069.5625   -1593.6823    791.20945   -1379.0223            0            0            0            0            0   -576.54946   -28.265231 
 1285000    295.94565     217.2223     887.6014    29227.025   -1415.6945    351.98095   -1063.7135   -1632.1934    793.39808   -1415.6945            0            0            0            0            0   -576.89913   -28.763209 
 1290000    290.05828   -295.89509     857.4023    30256.448   -1348.5318    344.97885    -1003.553   -1569.5147    797.63406   -1348.5318            0            0            0            0            0   -576.65121   -27.784591 
 1295000    297.93327   -283.61474    863.19479    30053.412   -1356.4897    354.34491   -1002.1448   -1581.3079    801.52897   -1356.4897            0            0            0            0            0   -576.71076   -27.972299 
 1300000    284.20553    752.32416    896.38931    28940.493    -1422.168    338.01791   -1084.1501   -1633.2444    787.98083    -1422.168            0            0            0            0            0   -576.90443   -29.047986 
 1305000     292.8949   -134.47513    883.36829    29367.082   -1405.2603    348.35256   -1056.9077   -1624.4284     795.9452   -1405.2603            0            0            0            0            0   -576.77709   -28.626033 
 1310000     290.1246    55.339169     871.2469    29775.657   -1373.8264    345.05772   -1028.7686   -1588.0786    790.94418   -1373.8264            0            0            0            0            0   -576.69191   -28.233232 
 1315000    274.61094   -89.675141      885.185     29306.81   -1410.8126    326.60666   -1084.2059    -1627.051    792.81648   -1410.8126            0            0            0            0            0   -576.57809   -28.684904 
 1320000     303.3358   -333.17564    868.94629     29854.49   -1386.5686    360.77037   -1025.7983   -1608.1259    798.27872   -1386.5686            0            0            0            0            0    -576.7214    -28.15868 
 1325000    282.44387   -188.63588    864.13814    30020.604   -1367.2346     335.9227   -1031.3119    -1578.634    788.28148   -1367.2346            0            0            0            0            0   -576.88202   -28.002869 
 1330000    295.25717    149.37653    866.00045    29956.045   -1350.3921    351.16212   -999.22997   -1569.9413    796.25855   -1350.3921            0            0            0            0            0   -576.70931   -28.063218 
 1335000    283.83975   -171.27216    881.65191    29424.253   -1405.7535    337.58288   -1068.1706    -1628.336    799.21124   -1405.7535            0            0            0            0            0   -576.62879   -28.570412 
 1340000     295.2933    563.02821    872.49785    29732.966   -1352.9721    351.20508   -1001.7671   -1576.1136    799.96339   -1352.9721            0            0            0            0            0   -576.82192    -28.27377 
 1345000    278.40062   -97.264381    850.14919    30514.584   -1317.4305    331.11389   -986.31666   -1538.3628     797.6764   -1317.4305            0            0            0            0            0   -576.74413   -27.549549 
 1350000    309.17167   -117.71723    875.50912    29630.701   -1399.4304    367.71123   -1031.7192   -1616.7659     794.1817   -1399.4304            0            0            0            0            0   -576.84622   -28.371352 
 1355000    280.48883    67.283652    879.56125    29494.192   -1383.5543    333.59749   -1049.9568   -1612.3365    805.24044   -1383.5543            0            0            0            0            0   -576.45829   -28.502663 
 1360000    275.59908   -155.63765    860.83234     30135.89   -1351.1704    327.78189   -1023.3885   -1575.4662    800.73173   -1351.1704            0            0            0            0            0   -576.43596   -27.895743 
 1365000    289.60731    203.40753    881.23477    29438.181   -1392.4458    344.44248   -1048.0033   -1611.6743     795.9623   -1392.4458            0            0            0            0            0   -576.73376   -28.556895 
 1370000    285.51278   -521.01701    873.73119    29690.995   -1400.8266    339.57269   -1061.2539   -1624.7242    800.74456   -1400.8266            0            0            0            0            0   -576.84695   -28.313737 
 1375000    314.01538   -52.906709    870.44438    29803.109    -1383.507    373.47206   -1010.0349   -1607.8627      800.684    -1383.507            0            0            0            0            0   -576.32828   -28.207226 
 1380000    278.22785   -349.63667    862.42657    30080.182   -1366.0245     330.9084   -1035.1161   -1587.3013    797.84071   -1366.0245            0            0            0            0            0   -576.56392   -27.947405 
 1385000    291.64746    -178.0333    868.60547    29866.204   -1361.0724    346.86892   -1014.2035   -1595.2377    810.67557   -1361.0724            0            0            0            0            0   -576.51031   -28.147635 
 1390000    276.31964    285.89418    881.83936    29417.998   -1396.2221    328.63888   -1067.5832   -1612.8132    793.46979   -1396.2221            0            0            0            0            0   -576.87862   -28.576487 
 1395000    279.44022    20.541037    889.01659      29180.5   -1419.9988    332.35033   -1087.6484   -1634.4191    791.14828   -1419.9988            0            0            0            0            0   -576.72794   -28.809069 
 1400000    292.39447    55.168903    880.62229    29458.655   -1392.6156    347.75738   -1044.8582   -1622.1047     805.9324   -1392.6156            0            0            0            0            0    -576.4433   -28.537047 
 1405000    294.45845      351.893    880.71271    29455.631   -1383.5041    350.21215    -1033.292   -1604.2941    797.53056   -1383.5041            0            0            0            0            0   -576.74059   -28.539977 
 1410000    306.31586    468.17676    891.27324    29106.617   -1402.3178    364.31469   -1038.0031   -1620.7918    795.27097   -1402.3178            0            0            0            0            0   -576.79701   -28.882197 
 1415000    284.27568   -354.29334    872.54601    29731.324   -1387.7378    338.10135   -1049.6365   -1610.6782    799.64118   -1387.7378            0            0            0            0            0   -576.70081   -28.275331 
 1420000    260.72764    348.70768    884.82049    29318.883   -1393.0659    310.09465   -1082.9712    -1613.702    797.36039   -1393.0659            0            0            0            0            0   -576.72421   -28.673092 
 1425000    295.90124    204.82032     872.1048    29746.366   -1361.2929    351.92813   -1009.3648   -1584.7675    800.24797   -1361.2929            0            0            0            0            0   -576.77339   -28.261033 
 1430000    305.55065   -28.937182    883.48155    29363.317   -1401.0587    363.40459   -1037.6541   -1621.1419    796.26707   -1401.0587            0            0            0            0            0   -576.18382   -28.629703 
 1435000    275.32002   -279.77826    846.49546    30646.294   -1309.2466       327.45   -981.79656   -1534.6966    802.35088   -1309.2466            0            0            0            0            0   -576.90081   -27.431148 
 1440000    295.60722    214.68226    892.30471    29072.971   -1430.9698    351.57843   -1079.3914   -1645.4963    790.98036   -1430.9698            0            0            0            0            0   -576.45388   -28.915622 
 1445000    300.80774   -143.47018     864.5679    30005.681   -1365.8455    357.76364   -1008.0818   -1583.7056    794.53054   -1365.8455            0            0            0            0            0   -576.67034   -28.016796 
 1450000    270.64571    163.07705    884.75836    29320.942    -1407.559    321.89064   -1085.6684    -1626.802    795.90402    -1407.559            0            0            0            0            0   -576.66111   -28.671079 
 1455000    286.83765    599.83493    884.16317     29340.68   -1389.6207    341.14842   -1048.4723   -1609.6415    796.76666   -1389.6207            0            0            0            0            0   -576.74585   -28.651791 
 1460000    299.19123   -301.32923    870.33332    29806.912   -1375.1032    355.84106   -1019.2621   -1602.5664    804.20848   -1375.1032            0            0            0            0            0   -576.74526   -28.203627 
 1465000    266.86199    61.850498     870.1952    29811.643   -1360.6977    317.39049   -1043.3072   -1581.8848    798.02379   -1360.6977            0            0            0            0            0   -576.83671   -28.199151 
 1470000    293.03297    42.052943    875.55198     29629.25   -1380.8136    348.51678   -1032.2968    -1602.508    798.33661   -1380.8136            0            0            0            0            0   -576.64221   -28.372741 
 1475000     304.0975    60.906294    883.11115    29375.633   -1401.3398     361.6763   -1039.6635   -1624.8312    800.14082   -1401.3398            0            0            0            0            0   -576.64941     -28.6177 
 1480000    288.78385    43.637329    877.71302    29556.299   -1391.3011    343.46312    -1047.838   -1611.8098    797.30474   -1391.3011            0            0            0            0            0   -576.79606   -28.442771 
 1485000    278.06348   -139.28907    876.71583    29589.917   -1398.8984    330.71291   -1068.1855   -1611.8052    789.62676   -1398.8984            0            0            0            0            0    -576.7199   -28.410456 
 1490000    270.54869   -4.1726207     869.0078    29852.377   -1371.8331    321.77525   -1050.0578   -1587.4733    792.49601   -1371.8331            0            0            0            0            0   -576.85581   -28.160673 
 1495000    284.81409     549.1593    873.11103    29712.085   -1374.8517    338.74171     -1036.11   -1591.1226    792.80678   -1374.8517            0            0            0            0            0   -576.53589    -28.29364 
 1500000    291.77503   -441.33526    869.62742    29831.107   -1388.6868    347.02065   -1041.6662   -1611.2392    799.34486   -1388.6868            0            0            0            0            0   -576.79245   -28.180752 
 1505000    283.78292   -302.59983    875.90198    29617.411   -1395.7975    337.51529   -1058.2822   -1621.2128    802.27762   -1395.7975            0            0            0            0            0   -576.86225   -28.384083 
 1510000    290.03309   -131.56689    861.67166    30106.536    -1367.842    344.94889   -1022.8931   -1579.7113    788.70216    -1367.842            0            0            0            0            0   -576.83291   -27.922941 
 1515000    291.08922    23.918504    876.64118    29592.437   -1390.3974    346.20498   -1044.1924   -1607.1426    793.39059   -1390.3974            0            0            0            0            0   -576.64537   -28.408037 
 1520000     299.8082    286.82204    882.89297    29382.892   -1399.4689    356.57484   -1042.8941   -1618.4256    795.66527   -1399.4689            0            0            0            0            0   -576.70853    -28.61063 
 1525000     295.2854   -343.75705    864.95681    29992.189    -1376.134    351.19569   -1024.9383   -1595.0212    795.79748    -1376.134            0            0            0            0            0   -576.91023   -28.029399 
 1530000      310.656    281.44326    876.49276    29597.448   -1372.0738    369.47661   -1002.5972   -1590.6413      795.045   -1372.0738            0            0            0            0            0    -576.4775   -28.403227 
 1535000    277.44554    200.35742    874.12695    29677.553   -1383.1478    329.97797   -1053.1698   -1594.6525    788.22851   -1383.1478            0            0            0            0            0   -576.72379   -28.326562 
 1540000     288.5233    -421.8944    875.71092    29623.873   -1400.4132    343.15323     -1057.26   -1624.6234    801.11931   -1400.4132            0            0            0            0            0   -576.90911   -28.377891 
 1545000    294.53753     1.600066    877.79339    29553.593   -1384.2722    350.30621    -1033.966   -1609.3865    801.80442   -1384.2722            0            0            0            0            0    -576.6902   -28.445375 
 1550000    286.31047   -55.948483    855.90092    30309.523   -1342.3383    340.52141   -1001.8169   -1555.2616     789.7952   -1342.3383            0            0            0            0            0   -576.87188   -27.735938 
 1555000    281.43653   -337.72657    869.32071    29841.632   -1376.9281    334.72463   -1042.2035   -1597.5551    797.24695   -1376.9281            0            0            0            0            0    -576.6199   -28.170813 
 1560000     293.1084   -43.143895    858.61265    30213.797   -1332.8758    348.60648   -984.26931   -1560.7999    804.70551   -1332.8758            0            0            0            0            0   -576.78145   -27.823813 
 1565000    310.23838   -280.08541    878.49421    29530.017    -1405.216    368.97991   -1036.2361   -1626.6319    797.99626    -1405.216            0            0            0            0            0   -576.58042   -28.468085 
 1570000    288.86993   -287.90219     877.7004    29556.724   -1393.0195    343.56549    -1049.454   -1619.7609    803.28749   -1393.0195            0            0            0            0            0   -576.54617   -28.442361 
 1575000     294.0111    90.191217    882.20079    29405.946   -1397.1242     349.6801   -1047.4441   -1620.6505    799.90761   -1397.1242            0            0            0            0            0   -576.38125   -28.588199 
 1580000    278.43167    386.68935     872.5483    29731.247   -1367.0169    331.15081   -1035.8661   -1581.6526    791.47349   -1367.0169            0            0            0            0            0   -576.83779   -28.275405 
 1585000    263.98612    727.19746    883.82016    29352.067   -1372.7234     313.9701   -1058.7533   -1600.4075    804.39322   -1372.7234            0            0            0            0            0   -576.70911   -28.640676 
 1590000     285.0579    103.38216    877.50015    29563.469   -1398.9005    339.03168   -1059.8688   -1611.2908    789.34595   -1398.9005            0            0            0            0            0   -576.95559   -28.435872 
 1595000    279.80661       -180.7    884.06706     29343.87   -1414.4694    332.78609   -1081.6833    -1635.453    797.75134   -1414.4694            0            0            0            0            0   -576.76779   -28.648677 
[...]
 4600000    293.08008   -139.42222    870.02298    29817.544   -1365.5809     348.5728   -1017.0081   -1595.8207    806.86372   -1365.5809            0            0            0            0            0   -576.62394   -28.193571 
 4605000    295.50963    132.05785    871.78105    29757.413    -1387.468    351.46237   -1036.0056   -1597.2428     786.3418    -1387.468            0            0            0            0            0   -576.56704   -28.250542 
 4610000    285.55536   -279.33042    868.02304    29886.244   -1384.7522    339.62333   -1045.1288   -1597.9685    790.00811   -1384.7522            0            0            0            0            0   -576.79181   -28.128761 
 4615000    310.07133    201.54938    870.36105    29805.962   -1366.3931    368.78124    -997.6119   -1587.8329    798.04422   -1366.3931            0            0            0            0            0   -576.60449   -28.204526 
 4620000    274.85078    544.56014    896.20297     28946.51   -1425.3075    326.89191   -1098.4156   -1641.2244    792.60022   -1425.3075            0            0            0            0            0   -576.68334   -29.041947 
 4625000    272.75084   -361.42421    865.69261    29966.698   -1375.6773    324.39436   -1051.2829   -1590.3193    791.34925   -1375.6773            0            0            0            0            0   -576.70717   -28.053242 
 4630000    291.01061    108.42081    883.44702    29364.464   -1406.7919     346.1115   -1060.6804   -1615.7755    785.66347   -1406.7919            0            0            0            0            0    -576.6798   -28.628584 
 4635000    300.96162   -360.34337    884.96005     29314.26   -1433.9537    357.94666    -1076.007   -1645.6252    788.28774   -1433.9537            0            0            0            0            0   -576.61622   -28.677614 
 4640000    298.15756   -614.00134    869.35644    29840.405   -1391.1183    354.61167   -1036.5066   -1613.2964    798.66209   -1391.1183            0            0            0            0            0   -576.48397   -28.171971 
 4645000     289.0831   -360.49421    891.24693    29107.476   -1448.4467    343.81902   -1104.6277   -1667.4606    795.62731   -1448.4467            0            0            0            0            0   -576.61342   -28.881344 
 4650000    278.58325   -325.87037    886.33632    29268.742   -1426.5689     331.3311   -1095.2378   -1652.1796    802.03991   -1426.5689            0            0            0            0            0    -576.4292   -28.722213 
 4655000    283.28134   -362.86573    859.99282    30165.308   -1361.7036    336.91874   -1024.7848   -1579.6025    794.34187   -1361.7036            0            0            0            0            0    -576.4429   -27.868538 
 4660000    279.42363   -43.829375    875.60543    29627.442   -1382.8341    332.33059   -1050.5035   -1607.0943    800.61526   -1382.8341            0            0            0            0            0   -576.35514   -28.374473 
 4665000    281.24862     63.03421    858.51837    30217.115   -1343.9515    334.50113   -1009.4503   -1569.0622    801.97059   -1343.9515            0            0            0            0            0   -576.85981   -27.820757 
 4670000    280.71561   -128.45093     865.2215    29983.014   -1355.1982     333.8672    -1021.331    -1576.283    797.96696   -1355.1982            0            0            0            0            0   -576.88215   -28.037976 
 4675000    284.83961    -298.6128    867.77262    29894.869   -1372.6692    338.77205   -1033.8972   -1593.7825     797.8817   -1372.6692            0            0            0            0            0   -576.76848   -28.120646 
 4680000    306.12205   -557.38639    858.16853    30229.434   -1361.5833    364.08418   -997.49916   -1580.1602    795.44551   -1361.5833            0            0            0            0            0   -576.86868   -27.809421 
 4685000    286.28168    286.27417    879.71888    29488.908   -1390.9509    340.48717   -1050.4637   -1609.1263    794.95848   -1390.9509            0            0            0            0            0   -576.78304   -28.507771 
 4690000    287.18615   -406.94711    862.03119    30093.979   -1362.5931    341.56289   -1021.0302   -1579.0757     793.1808   -1362.5931            0            0            0            0            0   -576.69827   -27.934592 
 4695000    273.42953   -26.922592    878.07762    29544.027   -1390.2135    325.20156    -1065.012   -1612.6048     798.9723   -1390.2135            0            0            0            0            0   -576.58105   -28.454585 
 4700000    271.11473    37.857376    866.67002    29932.902    -1356.694    322.44846   -1034.2455   -1579.3139    799.60496    -1356.694            0            0            0            0            0   -576.98498   -28.084916 
 4705000    261.79005    239.85796     885.7171    29289.204   -1391.9871    311.35822   -1080.6289   -1621.0645    805.71964   -1391.9871            0            0            0            0            0    -576.6423   -28.702147 
 4710000    297.49272    235.97735    864.29312    30015.221   -1351.2395    353.82095   -997.41854   -1571.7306    797.11428   -1351.2395            0            0            0            0            0   -576.62313   -28.007891 
 4715000    293.04425    159.66859    886.85793    29251.527   -1417.2308    348.53019   -1068.7006   -1634.4742    794.05722   -1417.2308            0            0            0            0            0   -576.81379   -28.739116 
 4720000     300.3556   -501.93302    865.26111    29981.642   -1376.2826    357.22589   -1019.0567   -1599.5762    799.91071   -1376.2826            0            0            0            0            0   -576.61712   -28.039259 
 4725000    302.68863     -312.497    866.57464    29936.196   -1370.4588    360.00067   -1010.4581   -1595.6914    802.12564   -1370.4588            0            0            0            0            0   -576.89305   -28.081825 
 4730000    290.89287    308.22353    889.02586    29180.196   -1415.3604    345.97146   -1069.3889   -1631.7169    793.14353   -1415.3604            0            0            0            0            0   -576.78702   -28.809369 
 4735000    283.73022   -241.83115    871.79385    29756.976   -1388.3184    337.45261   -1050.8658   -1603.3099    791.71906   -1388.3184            0            0            0            0            0   -576.72755   -28.250956 
 4740000    296.48017   -153.59275    879.56238    29494.155   -1399.9987    352.61668    -1047.382   -1614.9193    791.42386   -1399.9987            0            0            0            0            0    -576.5032     -28.5027 
 4745000    284.81958    -437.9024    857.45935    30254.436   -1356.5845    338.74824   -1017.8362   -1578.0586    797.80797   -1356.5845            0            0            0            0            0   -576.33385   -27.786439 
 4750000    251.60111   -56.518921    870.75992    29792.309   -1373.3543    299.24007   -1074.1142   -1589.5475    792.91963   -1373.3543            0            0            0            0            0    -576.7264   -28.217451 
 4755000    268.56101   -204.35021    877.53593    29562.264   -1392.5743    319.41122   -1073.1631   -1619.9057    803.90117   -1392.5743            0            0            0            0            0   -576.56972   -28.437032 
 4760000    301.20517   -84.331647     863.7562    30033.878   -1358.3286    358.23632   -1000.0923   -1572.9569    791.24493   -1358.3286            0            0            0            0            0    -576.6166   -27.990492 
 4765000    281.74392    459.06327    882.79255    29386.234    -1384.755    335.09022   -1049.6648   -1609.2294    801.13463    -1384.755            0            0            0            0            0   -576.66021   -28.607375 
 4770000    290.29346   -257.98142    877.02964     29579.33   -1404.2586    345.25855   -1059.0001   -1625.0879    797.48199   -1404.2586            0            0            0            0            0   -576.65272   -28.420625 
 4775000    276.60972   -751.93309    862.01234    30094.637   -1369.9118    328.98389   -1040.9279   -1589.2307    796.08402   -1369.9118            0            0            0            0            0   -576.76504   -27.933981 
 4780000    264.22188   -449.88093    876.29205    29604.227    -1398.147    314.25049   -1083.8965   -1618.9326     797.5679    -1398.147            0            0            0            0            0   -576.78227   -28.396723 
 4785000    291.19589    331.17118    884.65872    29324.244   -1400.2524    346.33185   -1053.9206   -1616.3472    793.06735   -1400.2524            0            0            0            0            0   -576.97251    -28.66785 
 4790000    296.24691    12.507184    877.24748    29571.984   -1391.9271    352.33926   -1039.5878   -1610.6243    795.47863   -1391.9271            0            0            0            0            0   -576.78141   -28.427684 
 4795000    287.49545   -423.93644    875.60212    29627.553   -1412.1346    341.93076   -1070.2039   -1627.4958    792.12197   -1412.1346            0            0            0            0            0   -576.76077   -28.374366 
 4800000    290.32106    165.93373    881.45059    29430.973   -1400.3793    345.29138   -1055.0879   -1618.9069     795.1315   -1400.3793            0            0            0            0            0   -576.60384   -28.563888 
 4805000    280.27819    382.61249     873.8154    29688.134   -1361.1058    333.34696   -1027.7588   -1586.6577    802.32296   -1361.1058            0            0            0            0            0   -576.77101   -28.316466 
 4810000    276.86611    526.12088    880.97039    29447.015   -1375.7815    329.28883   -1046.4926    -1600.669     801.6141   -1375.7815            0            0            0            0            0   -576.72653   -28.548327 
 4815000    282.46652   -426.01853    879.12153    29508.945   -1408.9539    335.94964   -1073.0043   -1628.9312    796.60941   -1408.9539            0            0            0            0            0   -576.63218   -28.488414 
 4820000     274.3406   -98.368537    879.64121    29491.511   -1392.0337    326.28513   -1065.7486   -1613.5867     798.1777   -1392.0337            0            0            0            0            0   -576.62468   -28.505254 
 4825000    282.66655    94.426608    874.31166    29671.283   -1385.6569    336.18754   -1049.4693   -1600.5979    791.78767   -1385.6569            0            0            0            0            0   -576.84666   -28.332547 
 4830000    287.91489    297.31293    876.23951    29606.002   -1385.4102    342.42961   -1042.9806   -1597.6011    788.99855   -1385.4102            0            0            0            0            0   -576.80763    -28.39502 
 4835000    305.02868   -97.900159    868.61857    29865.754   -1383.0578    362.78379    -1020.274   -1598.2643     791.7247   -1383.0578            0            0            0            0            0   -576.51819    -28.14806 
 4840000    295.54434    346.19428    887.22317    29239.485   -1404.6399    351.50366   -1053.1363   -1620.7738     792.6305   -1404.6399            0            0            0            0            0    -576.4966   -28.750952 
 4845000    272.23426    140.39678    870.89169    29787.801   -1356.1718    323.77997   -1032.3918    -1583.198    803.62782   -1356.1718            0            0            0            0            0   -576.60166   -28.221721 
 4850000    322.06407   -82.820789    866.90986    29924.621   -1373.0385    383.04471   -989.99381    -1586.713    790.24478   -1373.0385            0            0            0            0            0   -576.57033   -28.092688 
 4855000    298.08911   -105.08474    864.92135    29993.419   -1359.3904    354.53026   -1004.8602   -1581.2518    798.65811   -1359.3904            0            0            0            0            0   -576.79673   -28.028249 
 4860000    291.29625    234.95409    878.42361     29532.39   -1388.9943    346.45122    -1042.543   -1610.5761    798.33284   -1388.9943            0            0            0            0            0   -576.75103   -28.465797 
 4865000    287.58409    18.679359    875.66782    29625.331   -1378.3575    342.03618   -1036.3214   -1610.2701    808.43454   -1378.3575            0            0            0            0            0   -576.52199   -28.376495 
 4870000    305.72705    160.75534    884.92446    29315.439   -1406.3255    363.61439   -1042.7111   -1625.3525    795.86047   -1406.3255            0            0            0            0            0   -576.83344   -28.676461 
 4875000    280.50556   -145.45368    875.07493    29645.403   -1395.5532    333.61738   -1061.9358   -1601.5766    782.76604   -1395.5532            0            0            0            0            0   -576.74265   -28.357282 
 4880000    294.60579    346.86582    880.51525    29462.237   -1388.7285    350.38739   -1038.3411   -1609.3488    797.23328   -1388.7285            0            0            0            0            0   -576.61298   -28.533578 
 4885000    284.67935   -360.47053    874.94672    29649.747   -1400.2887    338.58145   -1061.7073     -1617.71    794.12689   -1400.2887            0            0            0            0            0   -576.70556   -28.353127 
 4890000    281.00271    339.67509     876.0446    29612.589    -1365.211    334.20867   -1031.0024   -1591.7059    802.87847    -1365.211            0            0            0            0            0   -576.38363   -28.388704 
 4895000    308.43303    -102.3651    877.25587    29571.701   -1400.2372    366.83273   -1033.4045    -1609.077    785.48424   -1400.2372            0            0            0            0            0   -576.64443   -28.427956 
 4900000    296.21289    38.285754    884.72915     29321.91   -1416.2755    352.29879   -1063.9767   -1628.8948    789.33737   -1416.2755            0            0            0            0            0   -576.71803   -28.670132 
 4905000    296.25313   -15.865658    873.46762    29699.955   -1379.4269    352.34665   -1027.0802   -1599.5844    796.94606   -1379.4269            0            0            0            0            0   -576.78856   -28.305196 
 4910000    300.69425    113.02508    883.92107    29348.716   -1411.4284    357.62867   -1053.7997   -1629.1267    794.45744   -1411.4284            0            0            0            0            0   -576.75911   -28.643946 
 4915000    298.49579    -193.9923    877.29676    29570.323   -1399.6484    355.01394   -1044.6344   -1618.9267    795.99167   -1399.6484            0            0            0            0            0   -576.71338   -28.429281 
 4920000    288.33489    215.89395    880.43659    29464.869   -1390.5216    342.92915   -1047.5924   -1606.9159    793.19917   -1390.5216            0            0            0            0            0   -576.80489   -28.531029 
 4925000    285.54514   -78.533659    869.14931    29847.517    -1366.577    339.61117   -1026.9658    -1585.208    795.42624    -1366.577            0            0            0            0            0   -576.79523   -28.165259 
 4930000    299.67345    257.85811    888.61025    29193.844   -1413.1451    356.41458   -1056.7305   -1630.9292    794.28465   -1413.1451            0            0            0            0            0   -576.50056   -28.795901 
 4935000    292.43245   -129.64089    867.84704    29892.305   -1377.7053    347.80255   -1029.9027   -1596.7193    795.55628   -1377.7053            0            0            0            0            0   -576.54228   -28.123058 
 4940000    280.21377    -137.0992    878.25973      29537.9   -1397.8559    333.27034   -1064.5856    -1623.861    802.56442   -1397.8559            0            0            0            0            0   -576.55936   -28.460487 
 4945000    274.22508    16.696449     873.2141    29708.577   -1378.7086    326.14773   -1052.5609    -1604.058    801.97873   -1378.7086            0            0            0            0            0   -576.62931    -28.29698 
 4950000    282.19642   -558.48444    872.32625    29738.815   -1398.8976    335.62839   -1063.2692   -1616.4471    794.45421   -1398.8976            0            0            0            0            0   -576.90469   -28.268209 
 4955000    282.83841    97.318723    886.99417    29247.034   -1412.8869    336.39194   -1076.4949   -1627.5911    791.32688   -1412.8869            0            0            0            0            0   -576.62265   -28.743531 
 4960000     266.2803   -61.106061    871.00177    29784.037   -1382.1018    316.69866   -1065.4032   -1599.5435    794.15057   -1382.1018            0            0            0            0            0   -576.70893   -28.225289 
 4965000    280.14056    117.62775    884.31025      29335.8   -1403.6037    333.18328   -1070.4204   -1622.0362    795.10391   -1403.6037            0            0            0            0            0   -576.67139   -28.656557 
 4970000     271.4195    75.618601    873.74339    29690.581   -1371.7824    322.81094   -1048.9715   -1586.6119    791.54992   -1371.7824            0            0            0            0            0   -576.72042   -28.314132 
 4975000    277.32216     158.1103     865.3789    29977.561   -1350.7891    329.83123   -1020.9579   -1570.8124    796.55011   -1350.7891            0            0            0            0            0    -576.5269   -28.043076 
 4980000    281.70355    7.3127451    875.88507    29617.982   -1385.0091     335.0422   -1049.9669   -1602.5158    794.31685   -1385.0091            0            0            0            0            0   -576.81024   -28.383535 
 4985000    283.28224   -125.46208    885.87308    29284.047   -1414.2206    336.91981   -1077.3007   -1642.1559    804.49123   -1414.2206            0            0            0            0            0   -576.55589   -28.707202 
 4990000    268.58644    192.55376    871.22732    29776.326   -1362.7208    319.44146   -1043.2793   -1588.5732    802.30749   -1362.7208            0            0            0            0            0   -576.45508   -28.232598 
 4995000    277.87404    253.33259      881.139    29441.381   -1392.2493     330.4876   -1061.7617    -1612.505    796.98789   -1392.2493            0            0            0            0            0   -576.73219   -28.553791 
 5000000    281.45583   -21.783163    869.42146    29838.174   -1370.4981    334.74759   -1035.7505   -1592.6664    798.88419   -1370.4981            0            0            0            0            0   -576.71593   -28.174078 
Loop time of 294534 on 1 procs for 5000000 steps with 2400 atoms

Performance: 1.467 ns/day, 16.363 hours/ns, 16.976 timesteps/s
100.0% CPU use with 1 MPI tasks x 1 OpenMP threads

MPI task timing breakdown:
Section |  min time  |  avg time  |  max time  |%varavg| %total
---------------------------------------------------------------
Pair    | 2.7278e+05 | 2.7278e+05 | 2.7278e+05 |   0.0 | 92.61
Bond    | 10.521     | 10.521     | 10.521     |   0.0 |  0.00
Kspace  | 8913.1     | 8913.1     | 8913.1     |   0.0 |  3.03
Neigh   | 7560.3     | 7560.3     | 7560.3     |   0.0 |  2.57
Comm    | 796.62     | 796.62     | 796.62     |   0.0 |  0.27
Output  | 0.073947   | 0.073947   | 0.073947   |   0.0 |  0.00
Modify  | 4310.7     | 4310.7     | 4310.7     |   0.0 |  1.46
Other   |            | 166.2      |            |       |  0.06

Nlocal:        2400.00 ave        2400 max        2400 min
Histogram: 1 0 0 0 0 0 0 0 0 0
Nghost:        18990.0 ave       18990 max       18990 min
Histogram: 1 0 0 0 0 0 0 0 0 0
Neighs:    1.86710e+06 ave  1.8671e+06 max  1.8671e+06 min
Histogram: 1 0 0 0 0 0 0 0 0 0

Total # of neighbors = 1867103
Ave neighs/atom = 777.95958
Ave special neighs/atom = 8.5000000
Neighbor list builds = 76414
Dangerous builds = 0
Total wall time: 98:05:43
