LAMMPS (29 Sep 2021 - Update 2)
OMP_NUM_THREADS environment is not set. Defaulting to 1 thread. (src/comm.cpp:98)
  using 1 OpenMP thread(s) per MPI task
Reading data file ...
  orthogonal box = (-15.466318 -15.466318 -15.466318) to (15.466318 15.466318 15.466318)
  1 by 1 by 1 MPI processor grid
  reading atoms ...
  2400 atoms
  scanning bonds ...
  3 = max bonds/atom
  scanning angles ...
  3 = max angles/atom
  scanning dihedrals ...
  4 = max dihedrals/atom
  reading bonds ...
  2400 bonds
  reading angles ...
  3600 angles
  reading dihedrals ...
  3600 dihedrals
Finding 1-2 1-3 1-4 neighbors ...
  special bond factors lj:    0        0        0       
  special bond factors coul:  0        0        0       
     3 = max # of 1-2 neighbors
     4 = max # of 1-3 neighbors
     8 = max # of 1-4 neighbors
    10 = max # of special neighbors
  special bonds CPU = 0.001 seconds
  read_data CPU = 0.023 seconds
  200 rigid bodies with 2400 atoms
PPPM initialization ...
  using 12-bit tables for long-range coulomb (src/kspace.cpp:340)
  G vector (1/distance) = 0.1428774
  grid = 6 6 6
  stencil order = 5
  estimated absolute RMS force accuracy = 0.0078609937
  estimated relative force accuracy = 2.3673149e-05
  using double precision FFTW3
  3d grid and FFT values/proc = 1331 216
Neighbor list info ...
  update every 1 steps, delay 10 steps, check yes
  max neighbors/atom: 2000, page size: 100000
  master list distance cutoff = 16.655
  ghost atom cutoff = 16.655
  binsize = 8.3275, bins = 4 4 4
  1 neighbor lists, perpetual/occasional/extra = 1 0 0
  (1) pair lj/cut/coul/long, perpetual
      attributes: half, newton on
      pair build: half/bin/newton
      stencil: half/bin/3d
      bin: standard
Setting up Verlet run ...
  Unit style    : real
  Current step  : 0
  Time step     : 1
Per MPI rank memory allocation (min/avg/max) = 29.12 | 29.12 | 29.12 Mbytes
Step Temp E_pair E_mol TotEng Press 
       0    284.87949     12647.25            0    12986.069    98057.733 
    5000    9682.7442     1458.272            0    12974.378    67480.084 
Loop time of 336.296 on 1 procs for 5000 steps with 2400 atoms

Performance: 1.285 ns/day, 18.683 hours/ns, 14.868 timesteps/s
100.0% CPU use with 1 MPI tasks x 1 OpenMP threads

MPI task timing breakdown:
Section |  min time  |  avg time  |  max time  |%varavg| %total
---------------------------------------------------------------
Pair    | 280.57     | 280.57     | 280.57     |   0.0 | 83.43
Bond    | 0.0065736  | 0.0065736  | 0.0065736  |   0.0 |  0.00
Kspace  | 8.7664     | 8.7664     | 8.7664     |   0.0 |  2.61
Neigh   | 44.567     | 44.567     | 44.567     |   0.0 | 13.25
Comm    | 0.98451    | 0.98451    | 0.98451    |   0.0 |  0.29
Output  | 3.7838e-05 | 3.7838e-05 | 3.7838e-05 |   0.0 |  0.00
Modify  | 1.273      | 1.273      | 1.273      |   0.0 |  0.38
Other   |            | 0.1267     |            |       |  0.04

Nlocal:        2400.00 ave        2400 max        2400 min
Histogram: 1 0 0 0 0 0 0 0 0 0
Nghost:        19090.0 ave       19090 max       19090 min
Histogram: 1 0 0 0 0 0 0 0 0 0
Neighs:    1.88217e+06 ave 1.88217e+06 max 1.88217e+06 min
Histogram: 1 0 0 0 0 0 0 0 0 0

Total # of neighbors = 1882173
Ave neighs/atom = 784.23875
Ave special neighs/atom = 8.5000000
Neighbor list builds = 431
Dangerous builds = 64
  create bodies CPU = 0.001 seconds
  200 rigid bodies with 2400 atoms
  3.8930169 = max distance from body owner to body atom
PPPM initialization ...
  using 12-bit tables for long-range coulomb (src/kspace.cpp:340)
  G vector (1/distance) = 0.1428774
  grid = 6 6 6
  stencil order = 5
  estimated absolute RMS force accuracy = 0.0078609937
  estimated relative force accuracy = 2.3673149e-05
  using double precision FFTW3
  3d grid and FFT values/proc = 1331 216
Setting up Verlet run ...
  Unit style    : real
  Current step  : 5000
  Time step     : 1
Per MPI rank memory allocation (min/avg/max) = 36.95 | 36.95 | 36.95 Mbytes
Step Temp E_pair E_mol TotEng Press Volume 
    5000    9682.7442     1458.272            0    12974.378    83310.189    29597.212 
 1005000     292.8649   -1360.7009            0    -1012.384   -367.06444    30052.162 
Loop time of 57912.2 on 1 procs for 1000000 steps with 2400 atoms

Performance: 1.492 ns/day, 16.087 hours/ns, 17.268 timesteps/s
100.0% CPU use with 1 MPI tasks x 1 OpenMP threads

MPI task timing breakdown:
Section |  min time  |  avg time  |  max time  |%varavg| %total
---------------------------------------------------------------
Pair    | 53586      | 53586      | 53586      |   0.0 | 92.53
Bond    | 2.1488     | 2.1488     | 2.1488     |   0.0 |  0.00
Kspace  | 1775.2     | 1775.2     | 1775.2     |   0.0 |  3.07
Neigh   | 1512.9     | 1512.9     | 1512.9     |   0.0 |  2.61
Comm    | 155.28     | 155.28     | 155.28     |   0.0 |  0.27
Output  | 3.7791e-05 | 3.7791e-05 | 3.7791e-05 |   0.0 |  0.00
Modify  | 847.87     | 847.87     | 847.87     |   0.0 |  1.46
Other   |            | 32.38      |            |       |  0.06

Nlocal:        2400.00 ave        2400 max        2400 min
Histogram: 1 0 0 0 0 0 0 0 0 0
Nghost:        18928.0 ave       18928 max       18928 min
Histogram: 1 0 0 0 0 0 0 0 0 0
Neighs:    1.85519e+06 ave 1.85519e+06 max 1.85519e+06 min
Histogram: 1 0 0 0 0 0 0 0 0 0

Total # of neighbors = 1855191
Ave neighs/atom = 772.99625
Ave special neighs/atom = 8.5000000
Neighbor list builds = 15453
Dangerous builds = 1
PPPM initialization ...
  using 12-bit tables for long-range coulomb (src/kspace.cpp:340)
  G vector (1/distance) = 0.14254681
  grid = 6 6 6
  stencil order = 5
  estimated absolute RMS force accuracy = 0.0079614508
  estimated relative force accuracy = 2.3975673e-05
  using double precision FFTW3
  3d grid and FFT values/proc = 1331 216
Setting up Verlet run ...
  Unit style    : real
  Current step  : 0
  Time step     : 1
Per MPI rank memory allocation (min/avg/max) = 36.95 | 36.95 | 36.95 Mbytes
Step Temp Press v_dens Volume PotEng KinEng TotEng E_vdwl E_coul E_pair E_bond E_angle E_dihed E_impro E_mol E_long E_tail 
       0     292.8649   -586.74413    863.23069    30052.162   -1360.7162    348.31688   -1012.3993    -1584.584    801.38181   -1360.7162            0            0            0            0            0   -577.51399   -27.973463 
    5000    322.76074    378.63766    866.26454    29946.913   -1340.0026    383.87329   -956.12932   -1561.0496    798.65612   -1340.0026            0            0            0            0            0   -577.60911   -28.071776 
   10000    295.37865   -278.59203    864.85305    29995.788   -1363.0945    351.30659   -1011.7879   -1588.8501    803.23528   -1363.0945            0            0            0            0            0   -577.47972   -28.026036 
   15000     279.0045   -421.64929    866.25929    29947.094   -1378.0729    331.83211   -1046.2407   -1600.6205    799.93827   -1378.0729            0            0            0            0            0   -577.39059   -28.071606 
   20000    288.68496    169.56326    853.23075    30404.376   -1310.5148     343.3455   -967.16933   -1530.9078    798.01755   -1310.5148            0            0            0            0            0   -577.62456   -27.649409 
   25000    294.88985   -472.04624    850.75412    30492.886   -1338.8861    350.72524   -988.16082   -1564.5545    803.05662   -1338.8861            0            0            0            0            0   -577.38817   -27.569152 
   30000    302.95304   -140.65558    862.78754    30067.598   -1352.8007    360.31514   -992.48556   -1578.0879    802.48898   -1352.8007            0            0            0            0            0   -577.20175   -27.959102 
   35000    272.70986    117.00276     865.1937    29983.978    -1354.237    324.34562   -1029.8914   -1573.8545    797.23197    -1354.237            0            0            0            0            0   -577.61444   -28.037075 
   40000    300.20611    -465.1894    860.42495    30150.159   -1361.3666     357.0481   -1004.3185   -1582.8536    799.05168   -1361.3666            0            0            0            0            0   -577.56468   -27.882541 
   45000    294.06859    169.98715    890.77588    29122.868   -1428.8734    349.74848   -1079.1249   -1640.4311    789.23583   -1428.8734            0            0            0            0            0   -577.67815   -28.866079 
   50000    272.55979    60.211174    871.39133    29770.722   -1377.9719    324.16714   -1053.8048   -1591.9716    791.59082   -1377.9719            0            0            0            0            0   -577.59118   -28.237913 
   55000    292.50334   -140.77116    859.12953     30195.62   -1348.8302    347.88686   -1000.9433   -1568.9987    797.75869   -1348.8302            0            0            0            0            0   -577.59016   -27.840562 
   60000    281.34093   -150.82101    867.71817    29896.745   -1373.0347    334.61092   -1038.4238    -1587.284    791.79322   -1373.0347            0            0            0            0            0   -577.54399   -28.118882 
   65000    303.20023   -22.635376    860.06301    30162.847   -1343.5096    360.60914   -982.90047   -1565.3923    799.30773   -1343.5096            0            0            0            0            0   -577.42506   -27.870812 
   70000    290.41454    356.38454    876.64995    29592.141   -1375.7955    345.40257   -1030.3929   -1591.8009    793.48991   -1375.7955            0            0            0            0            0   -577.48452   -28.408321 
   75000    267.15056   -69.040732    868.86935    29857.134   -1369.7425    317.73371   -1052.0088   -1591.4442     799.4829   -1369.7425            0            0            0            0            0    -577.7812   -28.156187 
   80000    328.61693   -532.67083     858.4118    30220.867   -1362.4025    390.83831   -971.56419   -1581.7666    797.04951   -1362.4025            0            0            0            0            0   -577.68536   -27.817304 
   85000    289.66459    423.04344    875.49997     29631.01   -1363.6744    344.51062   -1019.1638    -1587.577    801.10617   -1363.6744            0            0            0            0            0   -577.20355   -28.371055 
   90000    291.14404    528.76425    872.44738    29734.686   -1344.1205    346.27019   -997.85035    -1568.827    802.08823   -1344.1205            0            0            0            0            0   -577.38175   -28.272134 
   95000    306.56981   -431.66514    864.17973    30019.159   -1368.5808    364.61672   -1003.9641   -1593.5295    802.39027   -1368.5808            0            0            0            0            0   -577.44158   -28.004217 
  100000    269.24282    120.10802    871.87607     29754.17   -1366.8457    320.22211   -1046.6236   -1583.6776    794.29302   -1366.8457            0            0            0            0            0    -577.4611   -28.253621 
  105000    286.62237     321.6382    878.18638    29540.368   -1372.4078    340.89237   -1031.5154   -1586.7915    792.02797   -1372.4078            0            0            0            0            0   -577.64428    -28.45811 
  110000    284.57294   -28.489433    851.81035    30455.076   -1316.4529     338.4549   -977.99796   -1538.8772    799.85841   -1316.4529            0            0            0            0            0   -577.43404    -27.60338 
  115000     293.4702    655.93212    882.11559    29408.786   -1378.6803    349.03679   -1029.6435   -1598.9051     797.8595   -1378.6803            0            0            0            0            0   -577.63468   -28.585438 
  120000    257.54705    75.026456    865.65748    29967.914   -1346.3277    306.31184   -1040.0159   -1568.8565    800.07533   -1346.3277            0            0            0            0            0   -577.54655   -28.052104 
  125000    304.03276    55.511114    840.53123    30863.753    -1293.005     361.5993   -931.40565   -1515.0393    799.47782    -1293.005            0            0            0            0            0   -577.44348   -27.237874 
  130000    292.94485    776.99627    862.79985    30067.169   -1321.8439    348.41197   -973.43194   -1544.6631    800.43981   -1321.8439            0            0            0            0            0   -577.62064   -27.959501 
  135000    316.57601    367.24374    862.03143    30093.971   -1336.1819    376.51753   -959.66439   -1564.7015    806.12247   -1336.1819            0            0            0            0            0   -577.60293     -27.9346 
  140000    290.76437   -165.52723    858.33338    30223.628   -1349.5771    345.81863   -1003.7584   -1575.5537     803.5698   -1349.5771            0            0            0            0            0   -577.59319   -27.814763 
  145000    304.25049    175.39549    875.86896    29618.527   -1370.5603    361.85825    -1008.702   -1591.2818    798.20623   -1370.5603            0            0            0            0            0   -577.48468   -28.383013 
  150000    314.20235    17.262336    871.45456    29768.561   -1365.6235    373.69444   -991.92908   -1591.0491    802.88842   -1365.6235            0            0            0            0            0   -577.46282   -28.239962 
  155000    288.77488    196.63463     879.4264    29498.715   -1388.8301    343.45245   -1045.3776   -1610.2665    798.83286   -1388.8301            0            0            0            0            0   -577.39642   -28.498294 
  160000     280.7532    -520.5971    854.79984    30348.565   -1346.7082    333.91192   -1012.7963   -1572.2566     802.9813   -1346.7082            0            0            0            0            0   -577.43298   -27.700256 
  165000    281.73688   -302.73387    852.30901    30437.257   -1335.8784    335.08185   -1000.7966    -1560.835    802.64334   -1335.8784            0            0            0            0            0   -577.68674    -27.61954 
  170000    293.28568    -270.6149    871.18312    29777.837   -1388.0655    348.81733   -1039.2481   -1598.7355    788.39304   -1388.0655            0            0            0            0            0   -577.72302   -28.231165 
  175000    304.55305    44.412175    868.80556    29859.326   -1369.0771     362.2181    -1006.859   -1588.6843    797.26856   -1369.0771            0            0            0            0            0   -577.66133   -28.154119 
  180000    274.75539   -100.79619    874.86284    29652.589   -1392.5297    326.77845   -1065.7513   -1613.6806    798.69455   -1392.5297            0            0            0            0            0   -577.54361   -28.350409 
  185000    296.29992    524.38829    863.38562    30046.769   -1332.6291     352.4023   -980.22683   -1558.6702    803.57761   -1332.6291            0            0            0            0            0   -577.53657   -27.978483 
  190000    290.93391    696.37935     869.2422    29844.327   -1343.6828    346.02027   -997.66256   -1560.4142    794.19378   -1343.6828            0            0            0            0            0   -577.46237   -28.168269 
  195000    297.09554    315.30286    891.15488    29110.483   -1408.0369    353.34856   -1054.6883   -1633.4279    803.02303   -1408.0369            0            0            0            0            0   -577.63199   -28.878361 
  200000    308.83859   -290.54911    857.48305    30253.599   -1348.9074    367.31508   -981.59234   -1577.3771    806.02961   -1348.9074            0            0            0            0            0   -577.55996   -27.787207 
  205000    295.75372   -410.28044    853.92986    30379.484   -1329.8558    351.75268   -978.10314   -1554.0459    801.52116   -1329.8558            0            0            0            0            0   -577.33104   -27.672064 
  210000    297.82087    49.539182    866.75024    29930.132   -1351.3291    354.21123   -997.11784   -1568.8372    795.06554   -1351.3291            0            0            0            0            0   -577.55746   -28.087515 
  215000    289.08303   -323.06804    860.22464    30157.179   -1348.2029    343.81894   -1004.3839    -1570.489    799.75868   -1348.2029            0            0            0            0            0   -577.47258    -27.87605 
  220000     289.4234   -206.04785    868.25686    29878.196   -1364.3199    344.22375   -1020.0961   -1589.7332    803.03121   -1364.3199            0            0            0            0            0   -577.61784   -28.136338 
  225000    288.93572   -123.41178    861.45807        30114   -1343.4991    343.64374   -999.85536   -1571.0362    805.03849   -1343.4991            0            0            0            0            0   -577.50137    -27.91602 
  230000    300.86483    18.390243    872.64471    29727.962   -1374.2132    357.83155   -1016.3816   -1602.4472    805.65573   -1374.2132            0            0            0            0            0   -577.42173   -28.278529 
  235000     267.4142    153.45455    877.05269    29578.552   -1381.0613    318.04726   -1063.0141   -1603.5076    799.70457   -1381.0613            0            0            0            0            0   -577.25831   -28.421372 
  240000    299.88678  0.033818129    862.32653    30083.672    -1340.391     356.6683   -983.72269   -1567.6397    805.04456    -1340.391            0            0            0            0            0   -577.79587   -27.944163 
  245000    268.91783   -91.967664    864.01236    30024.974   -1359.1294    319.83559   -1039.2938   -1581.1198    799.59813   -1359.1294            0            0            0            0            0   -577.60771   -27.998793 
  250000    278.97679   -56.563275    850.94498    30486.047   -1315.9488    331.79915   -984.14961   -1554.1214    815.41366   -1315.9488            0            0            0            0            0   -577.24098   -27.575337 
  255000    285.24542    212.87523    870.89926    29787.542   -1364.7994     339.2547   -1025.5447   -1585.7491    798.27757   -1364.7994            0            0            0            0            0   -577.32788   -28.221967 
  260000    298.05675   -102.76055    863.43053    30045.207   -1354.9191    354.49177   -1000.4274   -1575.1721    797.77436   -1354.9191            0            0            0            0            0   -577.52139   -27.979939 
  265000    271.61757   -200.02628    867.14992    29916.336   -1367.5503    323.04651   -1044.5038   -1597.9766    807.83017   -1367.5503            0            0            0            0            0   -577.40383   -28.100467 
  270000    284.97238    423.80985    856.08711    30302.931   -1310.2335    338.92996   -971.30356   -1536.9124    804.10243   -1310.2335            0            0            0            0            0   -577.42359   -27.741971 
  275000    288.06831   -297.49862    856.62928    30283.752   -1335.0427    342.61209   -992.43059   -1560.6107    803.04933   -1335.0427            0            0            0            0            0   -577.48132    -27.75954 
  280000    259.81304    90.373887    884.18992    29339.792   -1408.9076    309.00687   -1099.9008   -1625.4638    794.14647   -1408.9076            0            0            0            0            0   -577.59027   -28.652658 
  285000    311.31403    131.04745    860.41849    30150.385   -1343.6331    370.25923   -973.37388   -1565.3242    799.16578   -1343.6331            0            0            0            0            0   -577.47463   -27.882332 
  290000    300.36291    480.64426     864.9347    29992.956   -1337.2761    357.23459   -980.04154   -1553.0565    793.41939   -1337.2761            0            0            0            0            0   -577.63906   -28.028682 
  295000    284.88639    64.856788    866.25454    29947.258   -1352.9538    338.82769   -1014.1261    -1578.729    803.35683   -1352.9538            0            0            0            0            0   -577.58162   -28.071452 
  300000     287.4064   -196.45298    874.99338    29648.166   -1383.0597    341.82485   -1041.2349   -1608.7896    803.05774   -1383.0597            0            0            0            0            0   -577.32791   -28.354639 
  305000    286.54133    120.06553    868.73246    29861.839    -1357.671    340.79599    -1016.875   -1576.1662    795.91693    -1357.671            0            0            0            0            0   -577.42169    -28.15175 
  310000    287.05013   -693.22171    872.75376    29724.248   -1399.0377    341.40112   -1057.6366    -1618.368    796.83136   -1399.0377            0            0            0            0            0   -577.50106   -28.282063 
  315000    305.43644    449.19852    863.05966    30058.117   -1333.8199    363.26875   -970.55114   -1556.7769    800.22866   -1333.8199            0            0            0            0            0   -577.27168    -27.96792 
  320000     287.1545    458.24223    853.72369    30386.821   -1316.5884    341.52526    -975.0631   -1527.2939    788.32155   -1316.5884            0            0            0            0            0   -577.61596   -27.665383 
  325000    291.98184   -403.86439    860.65942    30141.945   -1365.6767    347.26662   -1018.4101   -1579.7065    791.70132   -1365.6767            0            0            0            0            0   -577.67151   -27.890139 
  330000    291.71379   -166.52945     858.9322    30202.557    -1346.548    346.94782   -999.60019   -1569.2358    800.11446    -1346.548            0            0            0            0            0    -577.4267   -27.834168 
  335000    293.71715    601.62317    875.49012    29631.344   -1353.1592     349.3305   -1003.8287   -1587.1825    811.61066   -1353.1592            0            0            0            0            0   -577.58735   -28.370736 
  340000    288.89422    170.43019    863.24994    30051.492    -1344.641    343.59437   -1001.0466    -1571.874    804.88683    -1344.641            0            0            0            0            0   -577.65387   -27.974086 
  345000    285.80069   -5.1606224    871.93622    29752.117   -1374.8209    339.91511   -1034.9058   -1598.6868     801.1601   -1374.8209            0            0            0            0            0   -577.29421    -28.25557 
  350000    285.71984    -397.4083    856.58001    30285.494   -1357.0384    339.81895   -1017.2195   -1574.7493    795.09799   -1357.0384            0            0            0            0            0    -577.3871   -27.757944 
  355000    285.43772   -12.284317    866.25938    29947.091   -1357.4225    339.48341   -1017.9391   -1581.3769    801.71324   -1357.4225            0            0            0            0            0   -577.75886   -28.071609 
  360000    307.30485   -330.89109    865.20191    29983.693   -1366.8495    365.49094   -1001.3585   -1585.3277    795.63908   -1366.8495            0            0            0            0            0    -577.1609   -28.037341 
  365000    290.73996   -209.90389    862.56792    30075.253   -1355.6726     345.7896    -1009.883   -1582.3466    803.97221   -1355.6726            0            0            0            0            0   -577.29816   -27.951985 
  370000     295.4537    190.37414    860.43362    30149.855   -1329.4491    351.39586   -978.05322   -1557.3833    805.54444   -1329.4491            0            0            0            0            0   -577.61023   -27.882822 
  375000     286.8085    252.04645    874.54081    29663.508   -1369.3792    341.11374   -1028.2655   -1595.5735    803.62229   -1369.3792            0            0            0            0            0   -577.42804   -28.339973 
  380000    290.07052   -486.70775    862.64601    30072.531   -1355.7707     344.9934   -1010.7773   -1584.6314    806.47881   -1355.7707            0            0            0            0            0   -577.61818   -27.954516 
  385000     267.4014     272.8886    874.40343    29668.169   -1370.0149    318.03204   -1051.9828   -1589.2002    796.56759   -1370.0149            0            0            0            0            0    -577.3823   -28.335521 
  390000    320.71046    -43.62078    871.97896    29750.659   -1382.6521     381.4348   -1001.2173   -1601.3884    796.33568   -1382.6521            0            0            0            0            0   -577.59936   -28.256955 
  395000    290.22306    317.89966    873.83233    29687.559   -1367.2329    345.17482   -1022.0581   -1590.8911    801.30181   -1367.2329            0            0            0            0            0   -577.64363   -28.317014 
  400000    283.96508    221.28521    872.12704    29745.608   -1371.9205    337.73193   -1034.1886   -1592.8702    798.61099   -1371.9205            0            0            0            0            0    -577.6613   -28.261754 
  405000    281.53949    151.55297    882.31584    29402.112   -1397.4216    334.84708   -1062.5745   -1621.5199    801.60998   -1397.4216            0            0            0            0            0   -577.51175   -28.591927 
  410000    292.98782   -368.63007    870.67993    29795.046   -1392.2294    348.46308   -1043.7663   -1616.5059    801.97653   -1392.2294            0            0            0            0            0   -577.70002   -28.214859 
  415000    311.34156   -7.2912423    869.45872    29836.895   -1367.4868    370.29196   -997.19486   -1587.5242    797.86255   -1367.4868            0            0            0            0            0   -577.82514   -28.175285 
  420000    277.49272   -229.83571    881.37206    29433.595   -1409.9287    330.03408   -1079.8946   -1620.6084    788.48481   -1409.9287            0            0            0            0            0   -577.80512   -28.561344 
  425000     301.2707    370.16364    876.57644    29594.622   -1369.3112    358.31426    -1010.997    -1589.411    797.59006   -1369.3112            0            0            0            0            0   -577.49027   -28.405939 
  430000    296.38519   -63.676109    859.73071    30174.505   -1353.3191    352.50371   -1000.8154   -1573.4517    797.61171   -1353.3191            0            0            0            0            0   -577.47921   -27.860044 
  435000    298.08408   -16.600062    858.50387    30217.626   -1354.3525    354.52427   -999.82826   -1572.9495    796.08411   -1354.3525            0            0            0            0            0   -577.48717   -27.820287 
  440000    300.55022    204.97618    852.87698    30416.988   -1326.6755    357.45736   -969.21814   -1550.5506    801.25764   -1326.6755            0            0            0            0            0   -577.38249   -27.637945 
  445000    298.44185   -27.571037    871.88899    29753.729   -1370.4059    354.94978   -1015.4561   -1597.5984    804.83859   -1370.4059            0            0            0            0            0   -577.64609    -28.25404 
  450000    304.47635   -375.49414     855.3323    30329.672   -1348.1048    362.12688    -985.9779   -1566.1147    795.66106   -1348.1048            0            0            0            0            0   -577.65113   -27.717511 
  455000    305.12563    66.445357    888.33231    29202.978   -1418.1469     362.8991   -1055.2478   -1632.7446    792.16186   -1418.1469            0            0            0            0            0   -577.56419   -28.786894 
  460000    255.25061     139.8391    874.12005    29677.787    -1378.278    303.58058   -1074.6974   -1595.7828    795.06155    -1378.278            0            0            0            0            0   -577.55677   -28.326338 
  465000    307.72986    151.82117    861.33038    30118.465   -1338.6171    365.99642   -972.62069   -1559.4284    798.29746   -1338.6171            0            0            0            0            0    -577.4862   -27.911882 
  470000    306.38932   -111.97574    872.94399     29717.77   -1379.6693    364.40206   -1015.2672   -1601.6575    799.75067   -1379.6693            0            0            0            0            0   -577.76243   -28.288227 
  475000    279.63157   -395.54825    850.07942    30517.088   -1323.2938    332.57791   -990.71592   -1545.1899    799.42547   -1323.2938            0            0            0            0            0   -577.52944   -27.547288 
  480000     296.6776 -0.099175319     876.5946    29594.009   -1384.1334    352.85149   -1031.2819   -1608.4121    801.79074   -1384.1334            0            0            0            0            0   -577.51207   -28.406528 
  485000    302.48104    144.65221    881.68647      29423.1   -1388.1879    359.75377   -1028.4342     -1609.22    798.71095   -1388.1879            0            0            0            0            0    -577.6789   -28.571532 
  490000    275.81649   -334.93538    855.73844    30315.278   -1337.2236    328.04047   -1009.1832   -1559.9046     800.3443   -1337.2236            0            0            0            0            0   -577.66332   -27.730672 
  495000    279.94591    146.19082    879.25173    29504.575   -1388.8707    332.95177   -1055.9189   -1612.1443    800.70421   -1388.8707            0            0            0            0            0   -577.43053   -28.492633 
  500000    307.03078   -9.6508856    859.97812    30165.824   -1332.8098    365.16497   -967.64482   -1560.4851    804.90808   -1332.8098            0            0            0            0            0   -577.23273   -27.868061 
  505000    298.97474   -37.901413    871.78386    29757.317   -1382.7589    355.58358   -1027.1753   -1599.5313    794.20683   -1382.7589            0            0            0            0            0   -577.43442   -28.250633 
  510000    282.91949   -103.72181    866.88524     29925.47   -1356.7315    336.48837   -1020.2431   -1581.3987    801.95972   -1356.7315            0            0            0            0            0   -577.29251    -28.09189 
  515000    324.93006   -25.573698    869.01821     29852.02   -1369.9067    386.45336   -983.45332    -1592.122    799.81283   -1369.9067            0            0            0            0            0   -577.59752    -28.16101 
  520000    290.27314    407.91221    868.14453    29882.062   -1363.7307    345.23439   -1018.4963   -1582.5695    796.19286   -1363.7307            0            0            0            0            0   -577.35406   -28.132698 
  525000    277.57329   -699.70021    840.68953    30857.942   -1314.4564    330.12991   -984.32653    -1537.882    800.97086   -1314.4564            0            0            0            0            0   -577.54532   -27.243004 
  530000    282.45639    134.67468     874.1318    29677.388   -1391.1993    335.93759   -1055.2617   -1600.1068    786.51658   -1391.1993            0            0            0            0            0   -577.60912   -28.326719 
  535000    278.88881   -134.07847    843.79482     30744.38   -1303.8404    331.69451   -972.14591   -1522.4601    796.11154   -1303.8404            0            0            0            0            0   -577.49183   -27.343633 
  540000    270.58532    18.293057    864.41858    30010.864   -1359.5138    321.81881    -1037.695   -1579.3066    797.29179   -1359.5138            0            0            0            0            0   -577.49899   -28.011957 
  545000    320.87226    157.48339    874.91361    29650.869   -1378.1273    381.62725   -996.50008   -1597.8392    797.21744   -1378.1273            0            0            0            0            0   -577.50561   -28.352054 
  550000    309.73327    203.54895    875.94055    29616.106   -1379.5954    368.37917   -1011.2162   -1596.1925    794.03286   -1379.5954            0            0            0            0            0   -577.43573   -28.385333 
  555000    286.78654    2.8248326    879.32116    29502.245   -1398.0359    341.08762   -1056.9483   -1615.0779    794.41478   -1398.0359            0            0            0            0            0   -577.37282   -28.494883 
  560000    287.77147   -204.87101    861.99602    30095.207   -1354.5002    342.25904   -1012.2411   -1582.1089    805.20146   -1354.5002            0            0            0            0            0   -577.59273   -27.933453 
  565000    290.59277    104.20994    852.37221    30435.001   -1321.1855    345.61453   -975.57093   -1541.1026    797.47391   -1321.1855            0            0            0            0            0   -577.55683   -27.621587 
  570000    275.89552     -417.965    865.59521     29970.07    -1373.858    328.13446   -1045.7235   -1594.5019    798.26361    -1373.858            0            0            0            0            0   -577.61973   -28.050086 
  575000    262.01924    13.954297    865.50053    29973.348   -1348.0358    311.63081    -1036.405   -1576.0598    805.42594   -1348.0358            0            0            0            0            0   -577.40198   -28.047018 
  580000    286.51004    509.21295    868.79568    29859.666   -1347.4862    340.75877   -1006.7275   -1568.2947     798.5538   -1347.4862            0            0            0            0            0   -577.74536   -28.153799 
  585000    291.79233    -178.8992    867.97385    29887.938   -1373.9539    347.04123   -1026.9126   -1597.3585    801.04909   -1373.9539            0            0            0            0            0   -577.64447   -28.127167 
  590000    296.45988   -129.75288    870.03957    29816.975   -1374.9942    352.59254   -1022.4017   -1590.9848    793.64093   -1374.9942            0            0            0            0            0   -577.65033   -28.194108 
  595000    288.34638   -403.09713    845.53401    30681.142   -1319.1065    342.94281    -976.1637   -1542.8069    801.19038   -1319.1065            0            0            0            0            0   -577.48996   -27.399992 
  600000    280.38854   -596.56541    867.11911    29917.399   -1383.2923    333.47821   -1049.8141   -1598.4169     792.7724   -1383.2923            0            0            0            0            0   -577.64785   -28.099469 
  605000    302.17074    303.04707    863.39459    30046.457   -1344.7667    359.38471   -985.38201   -1564.0757     796.9624   -1344.7667            0            0            0            0            0   -577.65343   -27.978774 
  610000    293.16174   -306.34686    869.57754    29832.818   -1386.1225    348.66993   -1037.4526   -1600.6108    792.07061   -1386.1225            0            0            0            0            0   -577.58228   -28.179136 
  615000      282.204    88.667275    872.26153    29741.021   -1375.9199    335.63742   -1040.2824   -1595.7915    797.31985   -1375.9199            0            0            0            0            0   -577.44825   -28.266112 
  620000    291.62444    282.25596     876.1081    29610.443   -1380.3564    346.84155   -1033.5149   -1602.5447    799.76081   -1380.3564            0            0            0            0            0   -577.57252   -28.390762 
  625000    315.61876    -220.3521    863.62276    30038.519   -1356.1446    375.37903   -980.76553   -1582.5036    804.09896   -1356.1446            0            0            0            0            0   -577.73988   -27.986168 
  630000    277.74222   -134.12729    876.44128    29599.186   -1395.6483    330.33083   -1065.3175    -1609.153    791.26058   -1395.6483            0            0            0            0            0   -577.75584   -28.401559 
  635000    312.48202    10.131508    865.98963     29956.42   -1362.7432    371.64837   -991.09481   -1577.5643    792.44104   -1362.7432            0            0            0            0            0   -577.61994   -28.062867 
  640000    294.02469    394.41954    875.05345     29646.13   -1374.1166    349.69627   -1024.4204   -1594.5936    797.88791   -1374.1166            0            0            0            0            0   -577.41091   -28.356585 
  645000    295.09826    537.55747    870.36083     29805.97   -1355.7436    350.97311   -1004.7705   -1576.5423    798.27234   -1355.7436            0            0            0            0            0   -577.47366   -28.204519 
  650000    287.63252   -321.96515    852.81163    30419.319   -1334.8431    342.09378   -992.74928   -1563.1642    805.76238   -1334.8431            0            0            0            0            0   -577.44129   -27.635827 
  655000    296.82765    -627.6585    843.98333    30737.513   -1319.0102    353.02995   -965.98024   -1549.8497    808.66516   -1319.0102            0            0            0            0            0   -577.82565   -27.349741 
  660000    271.53587    267.95616     875.9071    29617.237   -1369.4719    322.94935   -1046.5226   -1588.6084       796.81   -1369.4719            0            0            0            0            0   -577.67352   -28.384249 
  665000    287.35023    363.43816    864.62429    30003.724   -1351.0153    341.75805   -1009.2573   -1568.6352    795.14278   -1351.0153            0            0            0            0            0   -577.52287   -28.018623 
  670000    270.22948    317.71333    871.53367    29765.859   -1362.4789    321.39559   -1041.0833   -1586.1932    801.24903   -1362.4789            0            0            0            0            0   -577.53475   -28.242525 
  675000    302.03111    25.669046    873.81885    29688.017   -1381.2008    359.21865   -1021.9822   -1603.1274    799.37747   -1381.2008            0            0            0            0            0   -577.45094   -28.316578 
  680000    303.46852    200.96651    846.23223    30655.827   -1290.6884    360.92822   -929.76017   -1521.0533    807.66388   -1290.6884            0            0            0            0            0     -577.299   -27.422618 
  685000    301.24466    46.928541    874.77136     29655.69   -1376.0591    358.28329   -1017.7758   -1601.5796    803.05556   -1376.0591            0            0            0            0            0   -577.53512   -28.347444 
  690000    270.73608    749.69527    869.47432     29836.36    -1333.293    321.99811   -1011.2949   -1556.8835    801.08675    -1333.293            0            0            0            0            0   -577.49633   -28.175791 
  695000     306.3018   -365.35118    846.39665    30649.872   -1316.7421    364.29796   -952.44419   -1542.2417    803.14814   -1316.7421            0            0            0            0            0   -577.64858   -27.427946 
  700000    286.59793   -114.63531    862.40971    30080.771   -1360.8015    340.86331   -1019.9382   -1581.9942    798.67749   -1360.8015            0            0            0            0            0   -577.48475   -27.946858 
  705000    298.59248   -31.924651    877.54396    29561.993   -1401.6165    355.12894   -1046.4876   -1610.9542    787.05523   -1401.6165            0            0            0            0            0   -577.71748   -28.437292 
  710000    272.10398     -140.813     862.9717    30061.181   -1350.1096    323.62502   -1026.4846   -1569.1805    796.76857   -1350.1096            0            0            0            0            0   -577.69771    -27.96507 
  715000    291.98215    156.60429    857.52331    30252.179   -1330.8601    347.26699   -983.59313   -1551.4585    798.29647   -1330.8601            0            0            0            0            0   -577.69814   -27.788512 
  720000    296.25481   -25.267252    874.06664      29679.6   -1387.5087    352.34865   -1035.1601   -1606.8026    796.68808   -1387.5087            0            0            0            0            0   -577.39422   -28.324608 
  725000    301.60465    133.14561    873.05108    29714.125   -1373.2493    358.71144   -1014.5379   -1597.2407    801.48334   -1373.2493            0            0            0            0            0   -577.49191   -28.291698 
  730000    306.01679   -221.56936    861.71564    30104.999    -1348.548      363.959   -984.58899   -1572.4646    801.25551    -1348.548            0            0            0            0            0   -577.33886   -27.924367 
  735000    302.19639   -221.25827    865.12361    29986.407   -1358.1779    359.41522   -998.76265   -1584.3992    803.61815   -1358.1779            0            0            0            0            0   -577.39682   -28.034804 
  740000    286.08636   -48.912911    862.92388    30062.847   -1344.8107    340.25487   -1004.5558   -1572.7909     805.7555   -1344.8107            0            0            0            0            0   -577.77525    -27.96352 
  745000    278.88294     2.038235    864.14555    30020.346   -1360.9496    331.68753    -1029.262     -1581.99    798.50665   -1360.9496            0            0            0            0            0   -577.46619   -28.003109 
  750000    322.58005   -46.497747    851.95704    30449.832   -1324.5272     383.6584   -940.86879   -1550.3703    803.41862   -1324.5272            0            0            0            0            0   -577.57549   -27.608134 
  755000    301.53923    35.356098    850.47571    30502.868   -1322.5295    358.63364   -963.89581   -1545.7212    800.86601   -1322.5295            0            0            0            0            0   -577.67425   -27.560131 
  760000     302.4937   -142.87655    865.14241    29985.755   -1355.8852    359.76883    -996.1164   -1576.8288    798.33236   -1355.8852            0            0            0            0            0   -577.38878   -28.035413 
  765000    280.95226   -94.127943    869.55729    29833.513   -1374.4085    334.14867   -1040.2598    -1591.845    794.95467   -1374.4085            0            0            0            0            0   -577.51813   -28.178479 
  770000    300.35721   -92.309374    877.42013    29566.165   -1382.0876    357.22781   -1024.8598   -1608.9159    804.32745   -1382.0876            0            0            0            0            0   -577.49914   -28.433279 
  775000    282.94422    286.38684     872.6392     29728.15   -1373.7152    336.51778   -1037.1974   -1589.6711    793.35522   -1373.7152            0            0            0            0            0   -577.39932    -28.27835 
  780000    299.08644    416.36735    872.42596    29735.416   -1354.8541    355.71642   -999.13764   -1574.9172    797.45617   -1354.8541            0            0            0            0            0     -577.393    -28.27144 
  785000    300.88495   -89.294361    874.98122    29648.578   -1383.1828    357.85547   -1025.3273   -1601.2739    795.58758   -1383.1828            0            0            0            0            0   -577.49645   -28.354245 
  790000    287.12775   -269.45018    847.39473    30613.771   -1326.3709    341.49345   -984.87748   -1549.1831    800.35533   -1326.3709            0            0            0            0            0   -577.54318    -27.46029 
  795000    272.10784   -259.34322    858.00364    30235.243   -1335.4449    323.62961   -1011.8152   -1564.5415    806.68706   -1335.4449            0            0            0            0            0   -577.59045   -27.804077 
  800000     293.1459    284.54695    882.53503    29394.809   -1388.1044    348.65108   -1039.4534   -1612.7529    802.20845   -1388.1044            0            0            0            0            0   -577.56003    -28.59903 
  805000    270.48308    407.04111    871.84119     29755.36   -1357.3577    321.69721   -1035.6605   -1583.5572    803.81273   -1357.3577            0            0            0            0            0   -577.61322   -28.252491 
  810000    304.27383    586.86446    889.33567     29170.03   -1395.7271    361.88601    -1033.841   -1610.4676    792.31087   -1395.7271            0            0            0            0            0   -577.57031   -28.819409 
  815000    286.99085    198.50297    862.69006    30070.995   -1336.6967    341.33062   -995.36608   -1560.2943    801.14727   -1336.6967            0            0            0            0            0    -577.5497   -27.955943 
  820000    291.15766   -73.924012    878.91287     29515.95   -1393.4911    346.28638   -1047.2047   -1615.1593    799.19879   -1393.4911            0            0            0            0            0    -577.5305   -28.481652 
  825000    275.63951   -243.91815    864.14254    30020.451   -1361.9181    327.82998   -1034.0881   -1585.6987    801.38168   -1361.9181            0            0            0            0            0    -577.6011   -28.003012 
  830000     315.6893   -97.024063    862.51576    30077.072   -1360.8685    375.46293    -985.4056   -1584.0141    800.53661   -1360.8685            0            0            0            0            0   -577.39102   -27.950295 
  835000     305.7465    328.02692    863.01306     30059.74   -1333.2049    363.63752   -969.56736   -1559.6845    803.99376   -1333.2049            0            0            0            0            0   -577.51412    -27.96641 
  840000    291.81329   -48.720097    866.38637    29942.702   -1359.3042    347.06615    -1012.238   -1579.4801    797.87613   -1359.3042            0            0            0            0            0   -577.70017   -28.075724 
  845000    278.68367   -187.24759    863.89408    30029.085   -1360.8019    331.45053   -1029.3514   -1580.1375    797.07271   -1360.8019            0            0            0            0            0   -577.73709    -27.99496 
  850000    300.62358   -146.02468    874.38887    29668.663   -1392.1718    357.54461   -1034.6272   -1601.0742    786.44849   -1392.1718            0            0            0            0            0   -577.54616    -28.33505 
  855000     301.5125   -38.608502    854.84431    30346.986   -1326.3151    358.60184    -967.7133   -1552.8996    804.02164   -1326.3151            0            0            0            0            0   -577.43723   -27.701698 
  860000    297.88164    520.63817    883.39316    29366.255   -1383.5043    354.28351   -1029.2208   -1606.4989    800.55656   -1383.5043            0            0            0            0            0   -577.56199   -28.626838 
  865000    308.53909   -589.54081    857.57675    30250.294   -1346.3569    366.95887   -979.39799   -1574.6374     805.9479   -1346.3569            0            0            0            0            0   -577.66734   -27.790243 
  870000    309.58416   -328.15864    855.74565    30315.023   -1341.7678    368.20181   -973.56602   -1568.8699    804.68031   -1341.7678            0            0            0            0            0   -577.57824   -27.730906 
  875000    305.25362    -85.59134    844.57815    30715.865   -1298.8568    363.05133    -935.8055   -1527.3885    805.93224   -1298.8568            0            0            0            0            0   -577.40055   -27.369017 
  880000    315.22494    56.371868     865.3797    29977.533   -1349.5437    374.91064   -974.63309   -1572.9928    800.95167   -1349.5437            0            0            0            0            0   -577.50257   -28.043102 
  885000    285.25528    178.21149    880.73655    29454.834   -1394.2032    339.26642   -1054.9367   -1612.4717    795.84555   -1394.2032            0            0            0            0            0   -577.57701    -28.54075 
  890000    293.78723    17.087591    873.16461    29710.261   -1383.0198    349.41384    -1033.606   -1600.2424    794.80084   -1383.0198            0            0            0            0            0   -577.57824   -28.295377 
  895000    290.44598   -498.79358    861.92964    30097.525   -1373.4286    345.43996   -1027.9886   -1591.2158    795.27556   -1373.4286            0            0            0            0            0   -577.48832   -27.931301 
  900000    279.05583     405.2885     872.8227    29721.899   -1360.8668    331.89316   -1028.9736   -1584.0758    800.88556   -1360.8668            0            0            0            0            0   -577.67654   -28.284297 
  905000    290.83461  -0.64591408    871.87752     29754.12   -1376.1873    345.90217   -1030.2851   -1597.1482    798.45302   -1376.1873            0            0            0            0            0   -577.49211   -28.253668 
  910000     319.0936   -103.46238    870.32691    29807.132   -1370.6692    379.51181    -991.1574   -1598.5052    805.20726   -1370.6692            0            0            0            0            0   -577.37128   -28.203419 
  915000     309.9662   -625.87258    861.12698    30125.579   -1371.7353    368.65619   -1003.0791    -1597.379    803.15678   -1371.7353            0            0            0            0            0   -577.51311   -27.905291 
  920000    292.02639     116.5827    881.39243    29432.915   -1401.3321     347.3196   -1054.0125   -1619.1078    795.06218   -1401.3321            0            0            0            0            0   -577.28653   -28.562004 
  925000    278.11432   -27.950924    870.63782    29796.487    -1379.416    330.77337   -1048.6427   -1597.4268    795.58614    -1379.416            0            0            0            0            0   -577.57541   -28.213495 
  930000    273.67276    148.81115    858.18714    30228.778   -1339.1528    325.49084   -1013.6619   -1559.7729    798.19078   -1339.1528            0            0            0            0            0   -577.57064   -27.810024 
  935000    303.98058    494.96427    858.60247    30214.156   -1337.8719    361.53723   -976.33466   -1551.8336    791.34792   -1337.8719            0            0            0            0            0   -577.38617   -27.823483 
  940000    300.78443    -159.3092    862.22303    30087.283   -1362.3102    357.73592   -1004.5743   -1583.1627    797.93406   -1362.3102            0            0            0            0            0   -577.08158   -27.940809 
  945000    304.49878    313.81882    869.63604    29830.811    -1363.435    362.15356   -1001.2815   -1582.3913     796.5827    -1363.435            0            0            0            0            0   -577.62642   -28.181031 
  950000    279.05194   -456.54765     863.0762    30057.541   -1361.5708    331.88852   -1029.6823   -1586.5645    802.45648   -1361.5708            0            0            0            0            0   -577.46274   -27.968456 
  955000    281.22455    51.856812     873.3433    29704.182   -1378.1089    334.47251   -1043.6364   -1601.9564    801.19887   -1378.1089            0            0            0            0            0   -577.35138   -28.301167 
  960000    292.67867    508.39784       880.56    29460.739   -1377.1576    348.09539   -1029.0622   -1599.6818    799.94082   -1377.1576            0            0            0            0            0   -577.41659   -28.535029 
  965000     276.9237    265.26813     875.5423    29629.578   -1365.4353    329.35733    -1036.078   -1593.8959    805.88314   -1365.4353            0            0            0            0            0   -577.42254   -28.372427 
  970000    291.29508    38.983384    851.06735    30481.663   -1319.6837    346.44983   -973.23387   -1536.7009    794.47667   -1319.6837            0            0            0            0            0   -577.45944   -27.579303 
  975000    280.90495    156.61409     873.5367    29697.606   -1368.7467    334.09239   -1034.6543   -1590.8771    799.68498   -1368.7467            0            0            0            0            0   -577.55464   -28.307435 
  980000    287.33696     238.1719    884.22641    29338.582   -1406.7462    341.74226   -1065.0039   -1615.3466     786.1722   -1406.7462            0            0            0            0            0   -577.57176    -28.65384 
  985000    306.57913    611.03877    874.03675    29680.615   -1357.4156     364.6278   -992.78776   -1581.5689    801.48647   -1357.4156            0            0            0            0            0   -577.33308   -28.323639 
  990000    276.18148   -709.73007    847.41286    30613.116   -1325.2877    328.47457   -996.81314   -1548.5197    800.68328   -1325.2877            0            0            0            0            0    -577.4513   -27.460877 
  995000    298.53957    262.69833    867.10938    29917.735   -1354.7246    355.06601   -999.65858   -1578.9597    801.63233   -1354.7246            0            0            0            0            0   -577.39722   -28.099154 
 1000000    291.04427     96.26404    866.70121    29931.824   -1355.5514    346.15152   -1009.3998   -1576.1758    797.76411   -1355.5514            0            0            0            0            0   -577.13963   -28.085927 
 1005000    314.11612    184.50224    871.76407    29757.992   -1366.5956    373.59188   -993.00368   -1594.5763    805.40747   -1366.5956            0            0            0            0            0   -577.42672   -28.249992 
 1010000    284.13666     262.1338    873.39541     29702.41   -1381.1115    337.93601   -1043.1754   -1594.7597    791.16649   -1381.1115            0            0            0            0            0   -577.51828   -28.302856 
 1015000     277.6136   -93.876989    871.96638    29751.088   -1385.4683    330.17786   -1055.2904   -1601.8017    794.02011   -1385.4683            0            0            0            0            0   -577.68667   -28.256548 
 1020000    301.48583    -540.0801    861.41104    30115.645   -1368.1345    358.57012   -1009.5643   -1588.7725    798.03491   -1368.1345            0            0            0            0            0   -577.39689   -27.914496 
 1025000     261.9447    132.86373    873.91928    29684.605   -1382.5196    311.54215   -1070.9775   -1601.8763    796.82141   -1382.5196            0            0            0            0            0    -577.4647   -28.319832 
 1030000    283.03857    69.458084    869.31536    29841.816   -1365.3804       336.63   -1028.7504   -1585.7444    797.99625   -1365.3804            0            0            0            0            0   -577.63232    -28.17064 
 1035000    283.59063   -28.415782    871.82697    29755.845    -1381.657    337.28659   -1044.3704   -1601.4459    797.45453    -1381.657            0            0            0            0            0   -577.66557    -28.25203 
 1040000    300.73306   -35.361734    869.72016    29827.926   -1375.0823    357.67483   -1017.4075   -1592.3011    794.86497   -1375.0823            0            0            0            0            0   -577.64617   -28.183757 
 1045000    312.49317   -63.456807    875.97304    29615.008   -1380.4991    371.66163   -1008.8375    -1611.525     808.4343   -1380.4991            0            0            0            0            0   -577.40846   -28.386386 
 1050000    288.58345    113.30763    878.82194    29519.004   -1383.6938    343.22476    -1040.469   -1610.9108    804.58775   -1383.6938            0            0            0            0            0   -577.37075   -28.478706 
 1055000    263.61447    98.477105     872.3135    29739.249   -1360.8739    313.52808   -1047.3458   -1590.6201    807.15535   -1360.8739            0            0            0            0            0   -577.40915   -28.267796 
 1060000    293.66872    163.64227    874.97113     29648.92   -1377.6636     349.2729   -1028.3907   -1597.3981    797.10216   -1377.6636            0            0            0            0            0   -577.36768   -28.353918 
 1065000    284.00399    349.90167    883.97707    29346.857   -1408.1843    337.77821   -1070.4061   -1622.1898    791.63327   -1408.1843            0            0            0            0            0   -577.62778    -28.64576 
 1070000    299.59537    459.07312    872.86649    29720.409   -1362.2292    356.32172   -1005.9074   -1586.1558    801.24868   -1362.2292            0            0            0            0            0   -577.32201   -28.285716 
 1075000    297.33322    92.094506    865.85325    29961.138   -1354.5296    353.63124   -1000.8983   -1576.9668    799.83056   -1354.5296            0            0            0            0            0   -577.39335   -28.058448 
 1080000      277.095    233.91196    873.98197    29682.476   -1367.8471    329.56106   -1038.2861   -1589.3007    799.02933   -1367.8471            0            0            0            0            0   -577.57577   -28.321864 
 1085000    320.04768     272.0079      861.471    30113.548   -1334.4698    380.64653   -953.82326   -1554.4903    797.48118   -1334.4698            0            0            0            0            0   -577.46068   -27.916439 
 1090000     299.3124    -538.6217    855.29221    30331.094    -1353.979    355.98517   -997.99384   -1576.8725    800.30974    -1353.979            0            0            0            0            0   -577.41629   -27.716212 
 1095000    290.12367   -190.29696    863.41216    30045.846   -1354.6734    345.05662   -1009.6168   -1574.3455    797.37544   -1354.6734            0            0            0            0            0   -577.70343   -27.979343 
 1100000    268.41307   -179.51728    862.38015    30081.802   -1359.1332    319.23527   -1039.8979   -1577.8815    796.03636   -1359.1332            0            0            0            0            0   -577.28804     -27.9459 
 1105000    290.55346    697.57226    886.64569    29258.529   -1392.3379    345.56778   -1046.7701   -1615.4097    800.27846   -1392.3379            0            0            0            0            0   -577.20665   -28.732239 
 1110000    275.80652    130.10638    867.88289    29891.071   -1364.6474    328.02861   -1036.6188   -1589.0712     801.8249   -1364.6474            0            0            0            0            0    -577.4011    -28.12422 
 1115000    284.91415   -249.93458     877.7193    29556.088     -1399.95    338.86071   -1061.0893   -1618.3431    796.03537     -1399.95            0            0            0            0            0   -577.64223   -28.442974 
 1120000     277.2354    42.307546    872.82775    29721.728   -1386.7157    329.72804   -1056.9876    -1599.517    790.34555   -1386.7157            0            0            0            0            0   -577.54424   -28.284461 
 1125000    322.94392   -593.51626    860.90819    30133.235   -1360.5724    384.09116   -976.48125   -1580.3089    797.24432   -1360.5724            0            0            0            0            0   -577.50781   -27.898201 
 1130000    272.39549   -331.57124    873.12145     29711.73   -1382.2517    323.97173     -1058.28   -1612.0448     807.2583   -1382.2517            0            0            0            0            0   -577.46528   -28.293978 
 1135000    298.21302    124.44335    867.04583    29919.928   -1360.9918    354.67763   -1006.3142   -1577.6004    794.25356   -1360.9918            0            0            0            0            0   -577.64493   -28.097094 
 1140000    285.15511   -315.27634    841.87361    30814.541   -1304.4179    339.14729   -965.27064   -1534.4389    807.35063   -1304.4179            0            0            0            0            0   -577.32966   -27.281375 
 1145000    297.09578   -181.88539    877.45385    29565.029   -1383.3131    353.34885   -1029.9643   -1608.4665    802.75036   -1383.3131            0            0            0            0            0   -577.59701   -28.434372 
 1150000    295.85122    280.22073    870.22658    29810.568   -1351.1073    351.86864   -999.23867   -1574.3545    800.87587   -1351.1073            0            0            0            0            0   -577.62864   -28.200168 
 1155000     295.2051   -240.02989    859.06528    30197.878   -1347.9998    351.10019   -996.89964   -1565.8834    795.46832   -1347.9998            0            0            0            0            0    -577.5847    -27.83848 
 1160000    293.07123   -366.59895    850.98541    30484.598    -1329.272    348.56228   -980.70977   -1547.0021    795.25923    -1329.272            0            0            0            0            0   -577.52915   -27.576648 
 1165000    289.32525    187.57923    869.62216    29831.287    -1368.252    344.10702    -1024.145   -1585.2735    794.61181    -1368.252            0            0            0            0            0   -577.59035   -28.180582 
 1170000    296.33857    446.53828    856.34421    30293.833   -1315.3768    352.44827    -962.9285   -1541.2123    802.94817   -1315.3768            0            0            0            0            0   -577.11268   -27.750302 
 1175000    293.04939   -181.25667    854.50642    30358.986   -1340.3363    348.53631   -991.80003   -1558.1059    795.26085   -1340.3363            0            0            0            0            0   -577.49131   -27.690748 
 1180000    265.31162   -230.54157    855.57724     30320.99    -1337.345    315.54658   -1021.7984   -1556.0105    796.39853    -1337.345            0            0            0            0            0   -577.73301   -27.725448 
 1185000    293.97566    -473.7664    868.65406    29864.534   -1382.4665    349.63796   -1032.8285   -1601.8789    796.94045   -1382.4665            0            0            0            0            0   -577.52807    -28.14921 
 1190000    293.42221   -607.17811    852.93801    30414.811   -1343.2036    348.97971   -994.22389   -1570.7831    805.22106   -1343.2036            0            0            0            0            0   -577.64161   -27.639923 
 1195000     287.2722    3.4591324    864.58837    30004.971   -1347.5969    341.66524   -1005.9317   -1564.5343     794.5333   -1347.5969            0            0            0            0            0   -577.59591   -28.017459 
 1200000    306.65255    211.41647    869.22296    29844.988   -1358.7832    364.71513   -994.06812   -1578.2575    797.11844   -1358.7832            0            0            0            0            0   -577.64423   -28.167645 
 1205000    281.94161    -250.9399    863.55696    30040.808   -1372.5654    335.32534     -1037.24   -1590.4371    795.43668   -1372.5654            0            0            0            0            0   -577.56497   -27.984036 
 1210000    311.07501   -54.204147    863.15816    30054.687   -1348.1269    369.97495   -978.15198   -1568.2141    797.68968   -1348.1269            0            0            0            0            0   -577.60251   -27.971112 
 1215000     287.4686   -220.85197    866.07689    29953.401   -1363.6206    341.89883   -1021.7218   -1583.4005    797.37375   -1363.6206            0            0            0            0            0   -577.59392   -28.065695 
 1220000    292.34311    28.230702    862.55371    30075.749   -1339.3335     347.6963   -991.63721   -1572.5285    810.76882   -1339.3335            0            0            0            0            0   -577.57382   -27.951525 
 1225000    306.79525   -479.94652    865.71888    29965.788    -1374.838    364.88485   -1009.9531   -1591.5455    794.27262    -1374.838            0            0            0            0            0   -577.56511   -28.054094 
 1230000    285.68922    176.38112    874.94838    29649.691   -1373.3575    339.78253   -1033.5749   -1596.6748    800.77348   -1373.3575            0            0            0            0            0    -577.4561   -28.353181 
 1235000    271.99651    387.74508    879.20384    29506.182   -1381.7583    323.49721    -1058.261   -1598.3525    794.18607   -1381.7583            0            0            0            0            0   -577.59177   -28.491081 
 1240000    303.98158   -15.028813    860.50617    30147.313   -1341.8033    361.53843   -980.26487   -1563.7668    799.30601   -1341.8033            0            0            0            0            0   -577.34255   -27.885173 
 1245000    296.80646   -373.38413     847.2072    30620.548   -1322.0019    353.00475   -968.99712   -1550.7397    805.77423   -1322.0019            0            0            0            0            0   -577.03635   -27.454213 
 1250000    292.59673    150.83915    864.82306    29996.828   -1361.7421    347.99794   -1013.7441   -1581.6531    797.44454   -1361.7421            0            0            0            0            0   -577.53348   -28.025064 
 1255000    282.09311   -349.88068    873.56742    29696.562   -1394.2765    335.50553    -1058.771   -1614.4178     797.5045   -1394.2765            0            0            0            0            0   -577.36316    -28.30843 
 1260000    287.00846    -72.95887    853.26896    30403.015   -1329.9857    341.35156   -988.63414   -1552.4885    800.00699   -1329.9857            0            0            0            0            0   -577.50424   -27.650647 
 1265000    284.33629    249.21952    870.78246    29791.538   -1361.8164    338.17343   -1023.6429   -1587.0155    802.67022   -1361.8164            0            0            0            0            0   -577.47104   -28.218182 
 1270000    287.01585   -92.985029    846.19838    30657.053   -1314.4169    341.36035   -973.05651   -1540.0466    803.21073   -1314.4169            0            0            0            0            0   -577.58104   -27.421521 
 1275000    284.99775   -67.968969    852.20451     30440.99   -1320.2995    338.96014   -981.33939   -1545.0026       802.16   -1320.2995            0            0            0            0            0   -577.45692   -27.616153 
 1280000    303.18333    265.49819     877.1516    29575.217   -1381.7751    360.58903   -1021.1861   -1603.4321    799.26543   -1381.7751            0            0            0            0            0   -577.60842   -28.424577 
 1285000    314.58795   -37.310014    859.08536    30197.172   -1344.6616    374.15305   -970.50855   -1569.0275    801.72503   -1344.6616            0            0            0            0            0   -577.35916   -27.839131 
 1290000    293.68105   -23.182349    867.21318    29914.154   -1358.1503    349.28757   -1008.8627   -1586.4621    805.76934   -1358.1503            0            0            0            0            0    -577.4576   -28.102517 
 1295000    305.34986   -8.8996545    871.85246    29754.975   -1371.6541    363.16578   -1008.4883    -1593.326    799.34099   -1371.6541            0            0            0            0            0   -577.66909   -28.252856 
 1300000    302.31739    365.63504    878.93499    29515.208    -1390.846    359.55913   -1031.2868   -1605.9116    792.56851    -1390.846            0            0            0            0            0   -577.50287   -28.482369 
 1305000    287.11011    657.99895    872.75926     29724.06   -1351.0542    341.47246   -1009.5817   -1575.9301     801.9143   -1351.0542            0            0            0            0            0   -577.03836   -28.282241 
 1310000    276.76993    37.577759    855.32982    30329.761   -1321.2923    329.17443    -992.1179   -1553.2419     809.2759   -1321.2923            0            0            0            0            0   -577.32629    -27.71743 
 1315000     308.7039     218.3631    865.83945    29961.616   -1340.6137    367.15489   -973.45882   -1562.5435    799.40893   -1340.6137            0            0            0            0            0    -577.4791   -28.058001 
 1320000    296.92724    381.55252    854.68121    30352.778   -1316.0631    353.14839   -962.91471   -1534.3648    795.90718   -1316.0631            0            0            0            0            0   -577.60553   -27.696412 
 1325000    302.00267    339.55988    880.13449    29474.983   -1386.1156    359.18482   -1026.9308   -1602.8657    794.40468   -1386.1156            0            0            0            0            0   -577.65455   -28.521239 
 1330000    277.48644    438.58698     859.4198    30185.421     -1318.13    330.02661   -988.10342   -1542.9741     802.3148     -1318.13            0            0            0            0            0    -577.4707   -27.849968 
 1335000    267.15677   -621.14732    865.99506    29956.231   -1385.2782    317.74108   -1067.5371   -1604.1351    796.10844   -1385.2782            0            0            0            0            0   -577.25157   -28.063044 
 1340000    286.29171   -268.92888    865.13619    29985.971     -1358.34     340.4991   -1017.8409   -1586.1942    805.26586     -1358.34            0            0            0            0            0   -577.41171   -28.035211 
 1345000    275.96125    137.98079    863.17173    30054.215   -1346.0978    328.21264   -1017.8851   -1569.3485    800.49772   -1346.0978            0            0            0            0            0   -577.24699   -27.971552 
 1350000    313.50725   -218.87485    868.08813    29884.003    -1379.634    372.86772   -1006.7663   -1598.7952    796.36162    -1379.634            0            0            0            0            0   -577.20043   -28.130871 
 1355000    294.18554   -155.90396    864.38076    30012.177   -1360.3832    349.88758   -1010.4956   -1587.6661     804.9026   -1360.3832            0            0            0            0            0   -577.61972   -28.010731 
 1360000    290.48227   -100.12705    863.43469    30045.062   -1358.0146    345.48311   -1012.5315    -1575.291    794.71162   -1358.0146            0            0            0            0            0   -577.43527   -27.980073 
 1365000    284.71921    83.539633    869.87592    29822.585   -1354.2675    338.62886   -1015.6387   -1576.2537    799.46731   -1354.2675            0            0            0            0            0   -577.48108   -28.188805 
 1370000    299.13305   -477.84018    847.86164    30596.913   -1326.2563    355.77187   -970.48439   -1548.8099    799.96201   -1326.2563            0            0            0            0            0   -577.40835    -27.47542 
 1375000    295.28964    174.30563    878.82385     29518.94   -1388.5609    351.20073   -1037.3602   -1610.6135    799.84875   -1388.5609            0            0            0            0            0   -577.79614   -28.478767 
 1380000    285.65532   -62.782446    862.61622    30073.569   -1348.4221    339.74221   -1008.6799   -1569.6951    798.69033   -1348.4221            0            0            0            0            0   -577.41735    -27.95355 
 1385000    294.39152    147.67612    860.05263    30163.211   -1337.3994    350.13256   -987.26688   -1567.7009    807.79679   -1337.3994            0            0            0            0            0   -577.49528   -27.870476 
 1390000    306.66989    357.42714    867.45703    29905.745   -1350.0169    364.73575   -985.28119   -1573.8119    801.10232   -1350.0169            0            0            0            0            0   -577.30738   -28.110419 
 1395000    289.18326    208.04994    872.28264    29740.301   -1368.5783    343.93815   -1024.6402   -1590.6194     799.8472   -1368.5783            0            0            0            0            0   -577.80613   -28.266796 
 1400000    305.92909   -58.410243    874.79646     29654.84   -1379.2992    363.85468   -1015.4445   -1605.0377    803.25932   -1379.2992            0            0            0            0            0   -577.52079   -28.348258 
 1405000    300.58224   -306.48202    847.91506    30594.985   -1318.1975    357.49545     -960.702   -1544.4873    803.70624   -1318.1975            0            0            0            0            0   -577.41638   -27.477151 
 1410000    272.02974   -236.26059    866.40998    29941.886   -1369.5023    323.53672   -1045.9656   -1585.7688    793.81572   -1369.5023            0            0            0            0            0   -577.54928   -28.076489 
 1415000    274.70208    166.70099    864.82424    29996.787     -1351.63    326.71506   -1024.9149   -1566.4525    792.35604     -1351.63            0            0            0            0            0   -577.53358   -28.025103 
 1420000    290.87173   -349.86381    864.94376    29992.642   -1364.4911    345.94632   -1018.5448   -1587.7424    800.68829   -1364.4911            0            0            0            0            0   -577.43698   -28.028975 
 1425000    289.71625   -228.40674    874.26925    29672.722   -1389.0797    344.57205   -1044.5076   -1608.1549    796.69342   -1389.0797            0            0            0            0            0   -577.61814   -28.331173 
 1430000    287.30705    86.115735    862.09525    30091.743   -1344.6828    341.70668   -1002.9762   -1563.4204    796.37851   -1344.6828            0            0            0            0            0   -577.64092   -27.936668 
 1435000    282.88617    255.35918    872.75267    29724.284   -1373.1054    336.44875   -1036.6567   -1582.1132    786.38198   -1373.1054            0            0            0            0            0    -577.3742   -28.282028 
 1440000    299.78228    230.74964    867.77671    29894.728   -1365.3129    356.54402   -1008.7688    -1576.674    788.82964   -1365.3129            0            0            0            0            0   -577.46851   -28.120779 
 1445000    296.12241    46.498994     859.3392    30188.252   -1344.7671    352.19118   -992.57587   -1563.5501    796.23517   -1344.7671            0            0            0            0            0   -577.45212   -27.847357 
 1450000    292.60034    348.72075    866.75204    29930.069   -1340.2604    348.00223   -992.25817   -1568.6606    805.87311   -1340.2604            0            0            0            0            0    -577.4729   -28.087574 
 1455000    293.56716    288.90801    882.10147    29409.257   -1394.2088    349.15211   -1045.0567   -1608.4978    791.77786   -1394.2088            0            0            0            0            0   -577.48886   -28.584981 
 1460000    288.25631    78.630799    866.98894    29921.891   -1360.1763    342.83568   -1017.3406   -1579.7169    797.12782   -1360.1763            0            0            0            0            0   -577.58725   -28.095251 
 1465000    289.98631    73.200271    881.43605    29431.459   -1394.8917    344.89325   -1049.9984   -1613.2198    795.72169   -1394.8917            0            0            0            0            0    -577.3936   -28.563417 
 1470000    296.08747   -728.50262    856.25291    30297.063   -1347.6468    352.14962   -995.49722   -1575.4635     805.3043   -1347.6468            0            0            0            0            0   -577.48764   -27.747344 
 1475000    286.42668    118.31315     869.4697    29836.518   -1368.1647    340.65963   -1027.5051   -1586.0507    795.36932   -1368.1647            0            0            0            0            0   -577.48338   -28.175641 
 1480000    308.93009    342.28158    867.17491    29915.474   -1338.4487     367.4239   -971.02481    -1572.609    811.49406   -1338.4487            0            0            0            0            0   -577.33376   -28.101277 
 1485000    311.39643   -59.441402    875.08932    29644.915   -1387.2903    370.35723    -1016.933   -1614.1192     804.3714   -1387.2903            0            0            0            0            0   -577.54241   -28.357748 
 1490000    287.53547   -303.56535    851.72086    30458.275   -1330.2619    341.97836   -988.28352   -1557.1641    804.47102   -1330.2619            0            0            0            0            0   -577.56877    -27.60048 
 1495000    326.34024   -394.63414    862.81763    30066.549   -1373.0077    388.13055   -984.87715   -1585.1914    789.82658   -1373.0077            0            0            0            0            0   -577.64284   -27.960077 
 1500000    297.33032    122.56751    870.75617    29792.437   -1366.3924     353.6278   -1012.7646   -1583.9436    794.94812   -1366.3924            0            0            0            0            0   -577.39695    -28.21733 
 1505000    290.82697    98.846628    875.26884    29638.835   -1378.9935    345.89308   -1033.1004    -1596.103      794.666   -1378.9935            0            0            0            0            0   -577.55645   -28.363565 
 1510000    289.58624   -145.68906    884.94122    29314.883   -1419.0973    344.41742   -1074.6799   -1632.9377    791.43222   -1419.0973            0            0            0            0            0   -577.59182   -28.677004 
 1515000    288.61922   -330.30557    858.28646     30225.28   -1352.2036    343.26731   -1008.9363   -1574.7465    800.05266   -1352.2036            0            0            0            0            0   -577.50975   -27.813242 
 1520000    277.61944     612.6901    880.23072     29471.76   -1365.5161     330.1848   -1035.3313   -1587.8582     799.6055   -1365.5161            0            0            0            0            0   -577.26345   -28.524358 
 1525000    280.11706    314.99048    886.54209    29261.948   -1395.0334    333.15533    -1061.878   -1620.2089    802.60613   -1395.0334            0            0            0            0            0   -577.43056   -28.728881 
 1530000    301.99866   -362.64835    858.48407    30218.323   -1353.0995    359.18006   -993.91942    -1580.284    804.63306   -1353.0995            0            0            0            0            0   -577.44853   -27.819646 
 1535000    292.76093    207.23981    869.89209    29822.031   -1365.2992    348.19323   -1017.1059   -1585.0478    797.40677   -1365.2992            0            0            0            0            0   -577.65815   -28.189329 
 1540000    264.63878  -0.78982403    871.57345    29764.501   -1386.3556    314.74633   -1071.6092   -1596.9871    788.22348   -1386.3556            0            0            0            0            0   -577.59197   -28.243814 
 1545000    287.89781   -19.089537    861.92554    30097.668   -1341.9667     342.4093   -999.55744   -1560.9129    796.45616   -1341.9667            0            0            0            0            0      -577.51   -27.931168 
 1550000    281.65343   -259.16381    874.86108    29652.649     -1380.27     334.9826   -1045.2874   -1608.3281    805.64398     -1380.27            0            0            0            0            0   -577.58583   -28.350352 
 1555000    297.93954   -98.343696    861.37957    30116.745   -1355.4172    354.35237   -1001.0649   -1583.4555    805.22694   -1355.4172            0            0            0            0            0   -577.18871   -27.913476 
 1560000    282.61592    187.34953    865.23147    29982.669   -1333.7668    336.12732   -997.63946    -1570.108    813.68527   -1333.7668            0            0            0            0            0   -577.34405   -28.038299 
 1565000    281.34906   -178.50425    859.40926    30185.791   -1339.7645    334.62059   -1005.1439   -1566.0302    803.60814   -1339.7645            0            0            0            0            0   -577.34238   -27.849627 
 1570000    307.22422   -403.38111    865.13608    29985.975   -1373.9804    365.39503   -1008.5854   -1596.8746    800.35589   -1373.9804            0            0            0            0            0   -577.46174   -28.035208 
 1575000    297.44997   -185.00095    854.28013    30367.028   -1348.9423     353.7701   -995.17216   -1567.0854     795.6249   -1348.9423            0            0            0            0            0   -577.48171   -27.683415 
 1580000    291.47675    78.217685    867.38982    29908.062   -1360.1401    346.66589   -1013.4742   -1578.1066    795.58147   -1360.1401            0            0            0            0            0   -577.61503   -28.108242 
 1585000    296.10987    263.82259    861.93788    30097.237   -1343.8813    352.17626     -991.705   -1559.4338    793.18662   -1343.8813            0            0            0            0            0   -577.63409   -27.931568 
 1590000    304.98922   -403.83312    858.43963    30219.887   -1354.2215    362.73686   -991.48464   -1572.3113    795.35952   -1354.2215            0            0            0            0            0   -577.26977   -27.818206 
 1595000    283.60865    242.11096    872.19186    29743.397   -1368.0888    337.30802   -1030.7807   -1589.7053    799.16828   -1368.0888            0            0            0            0            0   -577.55171   -28.263854 
[...]
 4600000    276.24928   -533.50823    867.87667    29891.285   -1386.5132     328.5552    -1057.958   -1609.7546    800.67346   -1386.5132            0            0            0            0            0   -577.43211   -28.124018 
 4605000    290.40644    107.64918    863.92434    30028.033    -1352.292    345.39292    -1006.899   -1575.8238    801.03072    -1352.292            0            0            0            0            0   -577.49893   -27.995941 
 4610000    300.11471    98.269349    848.29335    30581.341   -1298.6602    356.93939   -941.72083   -1528.6553    807.35703   -1298.6602            0            0            0            0            0   -577.36198    -27.48941 
 4615000    293.24881   -520.07996    852.31493    30437.046   -1332.7142    348.77348   -983.94072   -1562.6182    807.20747   -1332.7142            0            0            0            0            0   -577.30344   -27.619731 
 4620000    291.17299   -202.49519    861.69889    30105.584   -1355.8538    346.30461   -1009.5492   -1575.1747    796.80661   -1355.8538            0            0            0            0            0   -577.48571   -27.923824 
 4625000    325.06232    384.98156    869.37026    29839.931   -1353.8394    386.61066   -967.22872   -1579.3917    803.36027   -1353.8394            0            0            0            0            0   -577.80793   -28.172419 
 4630000    301.07126     6.833273    871.59874    29763.637   -1373.9327    358.07705   -1015.8557   -1599.7944    803.29057   -1373.9327            0            0            0            0            0   -577.42892   -28.244634 
 4635000    301.80497   -263.64583    864.79067    29997.952   -1368.2708     358.9497   -1009.3211   -1588.5824    797.67075   -1368.2708            0            0            0            0            0   -577.35911   -28.024015 
 4640000     306.8247    831.52955     877.7326     29555.64   -1369.6902    364.91988   -1004.7703   -1589.4769    797.21395   -1369.6902            0            0            0            0            0   -577.42725   -28.443405 
 4645000     299.2411    251.34709    884.08127    29343.398   -1393.8854    355.90037    -1037.985   -1612.5466    796.32992   -1393.8854            0            0            0            0            0   -577.66865   -28.649137 
 4650000    274.15059    57.798097    883.30996    29369.021   -1400.8382    326.05915    -1074.779   -1623.5039    800.04216   -1400.8382            0            0            0            0            0   -577.37645   -28.624142 
 4655000    306.93807    24.098887    870.62662     29796.87   -1361.8778    365.05471   -996.82307   -1585.5942    801.34926   -1361.8778            0            0            0            0            0    -577.6328   -28.213132 
 4660000    277.68104   -104.93097     876.7015    29590.401   -1396.6545    330.25807   -1066.3964   -1615.8875    796.87579   -1396.6545            0            0            0            0            0   -577.64278   -28.409992 
 4665000    322.82008   -169.62454    861.28522    30120.044   -1355.7105    383.94387   -971.76665   -1571.6866    793.66362   -1355.7105            0            0            0            0            0   -577.68754   -27.910419 
 4670000    298.42105     526.1113     879.8786    29483.555   -1385.3576    354.92504   -1030.4325   -1595.2438    787.28496   -1385.3576            0            0            0            0            0   -577.39872   -28.512947 
 4675000    295.86892   -49.955573    867.86296    29891.757   -1359.6753    351.88969   -1007.7856   -1587.2531    805.17235   -1359.6753            0            0            0            0            0   -577.59461   -28.123574 
 4680000     295.8092   -114.59515    866.74827      29930.2   -1375.5086    351.81866     -1023.69   -1597.0631     799.0328   -1375.5086            0            0            0            0            0   -577.47833   -28.087452 
 4685000    300.85783    79.343789    871.00319    29783.988   -1367.3129    357.82322   -1009.4897   -1592.2935    802.41295   -1367.3129            0            0            0            0            0   -577.43238   -28.225335 
 4690000    307.62016    193.54838    865.72041    29965.735   -1356.3174    365.86595   -990.45144   -1578.1512    799.30146   -1356.3174            0            0            0            0            0   -577.46765   -28.054143 
 4695000    281.38287   -119.30293    855.23813    30333.012   -1335.0381    334.66081   -1000.3773   -1561.7382    804.12377   -1335.0381            0            0            0            0            0   -577.42366   -27.714459 
 4700000    287.63651     155.0702    873.69014     29692.39   -1377.7841    342.09853   -1035.6856    -1597.981    797.78817   -1377.7841            0            0            0            0            0    -577.5913   -28.312407 
 4705000    271.29853    23.291655    859.37689    30186.928    -1339.792    322.66707   -1017.1249   -1563.7943     801.4349    -1339.792            0            0            0            0            0   -577.43255   -27.848578 
 4710000    319.58596    155.04712    874.17459    29675.935   -1381.8963    380.09739   -1001.7989    -1597.347     792.7948   -1381.8963            0            0            0            0            0   -577.34406   -28.328106 
 4715000    314.59342   -491.96523    854.88496    30345.543   -1345.5107    374.15955   -971.35113   -1565.8957    798.11951   -1345.5107            0            0            0            0            0   -577.73453   -27.703015 
 4720000    278.01882   -157.34371    864.01749    30024.796   -1344.3506     330.6598   -1013.6908   -1569.8775    802.88608   -1344.3506            0            0            0            0            0   -577.35914   -27.998959 
 4725000    282.53878    576.84726    875.60029    29627.615   -1369.5585    336.03558   -1033.5229    -1585.219    793.32384   -1369.5585            0            0            0            0            0   -577.66329   -28.374306 
 4730000    266.15917   -598.16092    862.75207    30068.834   -1373.6479     316.5546   -1057.0933   -1596.5427    800.35049   -1373.6479            0            0            0            0            0   -577.45564   -27.957953 
 4735000    302.84126   -291.09695     850.6603    30496.249    -1338.724    360.18219   -978.54183   -1556.5601    795.31257    -1338.724            0            0            0            0            0   -577.47654   -27.566112 
 4740000    281.17715   -183.41021    856.69967    30281.264   -1326.5151    334.41613   -992.09899   -1556.2211    807.35372   -1326.5151            0            0            0            0            0   -577.64777   -27.761821 
 4745000    291.61042   -132.45214    861.18503    30123.548   -1349.3078    346.82487    -1002.483   -1572.3049    800.59665   -1349.3078            0            0            0            0            0   -577.59961   -27.907172 
 4750000     300.6817     23.92422    857.64764    30247.794   -1332.7997    357.61374   -975.18597   -1555.2707    799.91117   -1332.7997            0            0            0            0            0   -577.44019   -27.792541 
 4755000    302.15841    -12.07437    876.10713    29610.476   -1389.2683    359.37005   -1029.8982    -1609.859    798.24574   -1389.2683            0            0            0            0            0   -577.65501   -28.390731 
 4760000    297.17627   -178.79009    860.03331    30163.888   -1349.5722    353.44458   -996.12766   -1573.2915    801.16581   -1349.5722            0            0            0            0            0   -577.44651    -27.86985 
 4765000    288.94648    101.32853     862.1455    30089.989   -1340.3603    343.65653   -996.70378   -1567.7029    804.94684   -1340.3603            0            0            0            0            0   -577.60425   -27.938296 
 4770000    287.85311   -127.46487    878.68085    29523.744    -1390.929    342.35614   -1048.5729   -1616.4219    802.97889    -1390.929            0            0            0            0            0   -577.48599   -28.474133 
 4775000    287.12313    322.91321    871.19891    29777.297    -1368.553    341.48794   -1027.0651    -1583.448    792.41417    -1368.553            0            0            0            0            0   -577.51918   -28.231677 
 4780000    296.88253   -169.78316    866.66185    29933.184   -1366.2711    353.09522   -1013.1759   -1588.2145    799.43956   -1366.2711            0            0            0            0            0   -577.49617   -28.084651 
 4785000    298.77393   -35.914677    876.17122     29608.31   -1399.7946    355.34475   -1044.4499   -1611.2751    788.63917   -1399.7946            0            0            0            0            0   -577.15868   -28.392808 
 4790000    293.68288   -447.05704    877.16108    29574.897   -1397.0598    349.28974     -1047.77   -1620.8753    801.43787   -1397.0598            0            0            0            0            0   -577.62233   -28.424885 
 4795000    304.51047   -28.806998    871.34823    29772.194   -1368.1199    362.16746   -1005.9525   -1597.7273    807.15554   -1368.1199            0            0            0            0            0   -577.54815   -28.236516 
 4800000    292.00087    412.01576    880.35217    29467.694   -1374.4962    347.28925   -1027.2069   -1592.4159    795.38019   -1374.4962            0            0            0            0            0    -577.4605   -28.528293 
 4805000    287.84758   -271.56237    870.00835    29818.046   -1380.0459    342.34957   -1037.6964   -1603.0869    800.44753   -1380.0459            0            0            0            0            0   -577.40657   -28.193096 
 4810000    282.40931   -379.85267    866.22263    29948.362   -1378.6572     335.8816   -1042.7756   -1594.6065    793.44025   -1378.6572            0            0            0            0            0   -577.49098   -28.070418 
 4815000    289.27148    78.227985    863.02968    30059.162   -1346.0359    344.04307   -1001.9928   -1571.7879    803.15081   -1346.0359            0            0            0            0            0   -577.39879   -27.966949 
 4820000    299.68248    503.66712    880.13291    29475.035   -1382.5271    356.42533   -1026.1018   -1603.6598    798.58704   -1382.5271            0            0            0            0            0   -577.45439   -28.521188 
 4825000    308.23482   -76.357014    862.54643    30076.003   -1346.0306    366.59699   -979.43357   -1571.0708    802.51057   -1346.0306            0            0            0            0            0   -577.47036   -27.951289 
 4830000    269.16168    180.88146    880.67061    29457.039   -1402.2077    320.12561   -1082.0821   -1615.0859    790.32103   -1402.2077            0            0            0            0            0   -577.44279   -28.538613 
 4835000    280.65539   -111.51787    871.10501    29780.507   -1375.2036    333.79558    -1041.408   -1597.9621    800.30812   -1375.2036            0            0            0            0            0   -577.54968   -28.228634 
 4840000    315.80932   -244.82654    852.45841    30431.923   -1336.0884    375.60567   -960.48274   -1557.6499    799.11098   -1336.0884            0            0            0            0            0   -577.54947   -27.624381 
 4845000    317.33572   -151.87371    885.83007    29285.469   -1424.0276    377.42108   -1046.6065   -1642.6657    796.36113   -1424.0276            0            0            0            0            0     -577.723   -28.705808 
 4850000    290.53067    599.69698    868.08702    29884.042   -1348.6512    345.54068   -1003.1105   -1568.0397    796.99062   -1348.6512            0            0            0            0            0   -577.60216   -28.130835 
 4855000    304.13983    108.71301    867.36594    29908.886   -1369.9888    361.72664   -1008.2621   -1587.2171     794.7597   -1369.9888            0            0            0            0            0   -577.53137   -28.107468 
 4860000    291.55445   -70.041102    859.49345    30182.835   -1347.4567    346.75831   -1000.6984   -1569.4217    799.37227   -1347.4567            0            0            0            0            0   -577.40727   -27.852355 
 4865000    301.50714   0.49541093    845.93535    30666.586   -1295.8139    358.59547   -937.21841   -1527.9847    809.73476   -1295.8139            0            0            0            0            0   -577.56398   -27.412998 
 4870000    298.58532   -208.22248    851.84943    30453.679    -1333.081    355.12042   -977.96057   -1554.0372    798.53502    -1333.081            0            0            0            0            0   -577.57877   -27.604647 
 4875000    303.37656    149.34233     857.8632    30240.193   -1334.7566    360.81885   -973.93772   -1558.6183    801.20525   -1334.7566            0            0            0            0            0   -577.34348   -27.799526 
 4880000    319.82705    362.66474    875.28667    29638.231    -1376.655    380.38413   -996.27087   -1597.6861    798.35563    -1376.655            0            0            0            0            0   -577.32454   -28.364143 
 4885000    280.76767   -291.21831    869.50405     29835.34   -1380.6244    333.92913   -1046.6953   -1601.6913    798.76911   -1380.6244            0            0            0            0            0   -577.70224   -28.176754 
 4890000     305.0208    439.12808    870.56587     29798.95   -1359.8451    362.77442   -997.07068   -1578.5087    796.04492   -1359.8451            0            0            0            0            0   -577.38133   -28.211163 
 4895000    284.70017    845.98965    870.19916    29811.507    -1342.927    338.60622   -1004.3208   -1560.0372    794.58751    -1342.927            0            0            0            0            0    -577.4773    -28.19928 
 4900000    278.95545    -251.8106    863.23814    30051.903    -1364.468    331.77376   -1032.6943   -1579.6203    792.87143    -1364.468            0            0            0            0            0   -577.71917   -27.973704 
 4905000    291.02898    268.04279    886.78128    29254.055   -1410.0976    346.13334   -1063.9643   -1628.0524    795.57684   -1410.0976            0            0            0            0            0   -577.62209   -28.736632 
 4910000    270.71442    65.823838    874.69677    29658.219   -1382.8676    321.97235   -1060.8952   -1601.4297    795.83975   -1382.8676            0            0            0            0            0   -577.27762   -28.345027 
 4915000    296.62352    -83.91072    868.40578    29873.072   -1366.6301    352.78717   -1013.8429    -1582.404     793.3476   -1366.6301            0            0            0            0            0   -577.57365   -28.141164 
 4920000    317.06834     395.0865    899.03693    28855.265   -1441.4497    377.10307   -1064.3466   -1653.4328    789.45218   -1441.4497            0            0            0            0            0   -577.46904   -29.133784 
 4925000    290.43176    15.999605    861.71307    30105.089    -1345.881    345.42304   -1000.4579   -1566.5879    798.41407    -1345.881            0            0            0            0            0   -577.70712   -27.924283 
 4930000    300.86339   -343.97601    877.82815    29552.423   -1404.2694    357.82983   -1046.4396   -1619.5995    792.74148   -1404.2694            0            0            0            0            0   -577.41143   -28.446501 
 4935000    306.73139   -103.67998    864.89692    29994.266    -1364.931    364.80889   -1000.1221   -1589.9415    802.18318    -1364.931            0            0            0            0            0   -577.17262   -28.027458 
 4940000    311.16805   -232.34102    864.74517     29999.53   -1370.1805    370.08561   -1000.0949   -1594.8223    802.16203   -1370.1805            0            0            0            0            0   -577.52025    -28.02254 
 4945000    286.62998      -74.627     872.3122    29739.294   -1390.2201    340.90142   -1049.3187    -1597.382    784.71477   -1390.2201            0            0            0            0            0   -577.55283   -28.267754 
 4950000     287.5347    426.54932    877.48031    29564.138   -1384.3641    341.97745   -1042.3866   -1599.1995    792.46524   -1384.3641            0            0            0            0            0    -577.6298   -28.435229 
 4955000    307.81745    372.44692    897.18205    28914.922   -1437.3845    366.10059   -1071.2839   -1651.6761    791.79871   -1437.3845            0            0            0            0            0   -577.50706   -29.073675 
 4960000    290.79533   -241.15478    875.55291    29629.219   -1382.6601    345.85545   -1036.8047   -1604.3547    799.05729   -1382.6601            0            0            0            0            0   -577.36267   -28.372771 
 4965000    290.49165    173.24274    863.28286    30050.346   -1349.9645    345.49427   -1004.4702   -1572.9118    800.65335   -1349.9645            0            0            0            0            0   -577.70603   -27.975153 
 4970000    300.40337     99.65737    875.95776    29615.525   -1376.2217    357.28271    -1018.939   -1603.4614    804.56432   -1376.2217            0            0            0            0            0   -577.32467    -28.38589 
 4975000    291.63375   -125.40156    871.06724    29781.798   -1369.9134    346.85262   -1023.0608   -1591.6994    799.22383   -1369.9134            0            0            0            0            0   -577.43787    -28.22741 
 4980000    275.88406     -181.697    854.22081    30369.137   -1328.3376    328.12083   -1000.2168   -1554.4678    803.69736   -1328.3376            0            0            0            0            0   -577.56715   -27.681492 
 4985000    280.96993    91.546055    867.86843    29891.569   -1368.3152    334.16968   -1034.1455   -1587.6887    796.93076   -1368.3152            0            0            0            0            0   -577.55719   -28.123751 
 4990000    288.34036   -188.77264    865.50602    29973.158   -1364.4048    342.93565   -1021.4691     -1586.98     800.1918   -1364.4048            0            0            0            0            0   -577.61658   -28.047196 
 4995000    285.82152    205.85134    874.57158    29662.465   -1370.8468    339.93988   -1030.9069   -1592.3042    798.86882   -1370.8468            0            0            0            0            0   -577.41135    -28.34097 
 5000000    310.17751   -197.86989    872.61478    29728.981   -1391.9592    368.90752   -1023.0517   -1606.9799    792.64049   -1391.9592            0            0            0            0            0   -577.61982   -28.277559 
Loop time of 292541 on 1 procs for 5000000 steps with 2400 atoms

Performance: 1.477 ns/day, 16.252 hours/ns, 17.092 timesteps/s
100.0% CPU use with 1 MPI tasks x 1 OpenMP threads

MPI task timing breakdown:
Section |  min time  |  avg time  |  max time  |%varavg| %total
---------------------------------------------------------------
Pair    | 2.7044e+05 | 2.7044e+05 | 2.7044e+05 |   0.0 | 92.44
Bond    | 10.554     | 10.554     | 10.554     |   0.0 |  0.00
Kspace  | 8916.2     | 8916.2     | 8916.2     |   0.0 |  3.05
Neigh   | 7597.1     | 7597.1     | 7597.1     |   0.0 |  2.60
Comm    | 826.04     | 826.04     | 826.04     |   0.0 |  0.28
Output  | 0.12144    | 0.12144    | 0.12144    |   0.0 |  0.00
Modify  | 4587.3     | 4587.3     | 4587.3     |   0.0 |  1.57
Other   |            | 165.8      |            |       |  0.06

Nlocal:        2400.00 ave        2400 max        2400 min
Histogram: 1 0 0 0 0 0 0 0 0 0
Nghost:        18980.0 ave       18980 max       18980 min
Histogram: 1 0 0 0 0 0 0 0 0 0
Neighs:    1.87443e+06 ave 1.87443e+06 max 1.87443e+06 min
Histogram: 1 0 0 0 0 0 0 0 0 0

Total # of neighbors = 1874431
Ave neighs/atom = 781.01292
Ave special neighs/atom = 8.5000000
Neighbor list builds = 77065
Dangerous builds = 0
Total wall time: 97:26:29
