LAMMPS (29 Sep 2021 - Update 2)
OMP_NUM_THREADS environment is not set. Defaulting to 1 thread. (src/comm.cpp:98)
  using 1 OpenMP thread(s) per MPI task
Reading data file ...
  orthogonal box = (-15.466318 -15.466318 -15.466318) to (15.466318 15.466318 15.466318)
  1 by 1 by 1 MPI processor grid
  reading atoms ...
  2400 atoms
  scanning bonds ...
  3 = max bonds/atom
  scanning angles ...
  3 = max angles/atom
  scanning dihedrals ...
  4 = max dihedrals/atom
  reading bonds ...
  2400 bonds
  reading angles ...
  3600 angles
  reading dihedrals ...
  3600 dihedrals
Finding 1-2 1-3 1-4 neighbors ...
  special bond factors lj:    0        0        0       
  special bond factors coul:  0        0        0       
     3 = max # of 1-2 neighbors
     4 = max # of 1-3 neighbors
     8 = max # of 1-4 neighbors
    10 = max # of special neighbors
  special bonds CPU = 0.001 seconds
  read_data CPU = 0.038 seconds
  200 rigid bodies with 2400 atoms
PPPM initialization ...
  using 12-bit tables for long-range coulomb (src/kspace.cpp:340)
  G vector (1/distance) = 0.1428774
  grid = 6 6 6
  stencil order = 5
  estimated absolute RMS force accuracy = 0.0078609937
  estimated relative force accuracy = 2.3673149e-05
  using double precision FFTW3
  3d grid and FFT values/proc = 1331 216
Neighbor list info ...
  update every 1 steps, delay 10 steps, check yes
  max neighbors/atom: 2000, page size: 100000
  master list distance cutoff = 16.655
  ghost atom cutoff = 16.655
  binsize = 8.3275, bins = 4 4 4
  1 neighbor lists, perpetual/occasional/extra = 1 0 0
  (1) pair lj/cut/coul/long, perpetual
      attributes: half, newton on
      pair build: half/bin/newton
      stencil: half/bin/3d
      bin: standard
Setting up Verlet run ...
  Unit style    : real
  Current step  : 0
  Time step     : 1
Per MPI rank memory allocation (min/avg/max) = 29.12 | 29.12 | 29.12 Mbytes
Step Temp E_pair E_mol TotEng Press 
       0    289.03653     12647.25            0    12991.013    97942.521 
    5000    10007.798    1076.8405            0    12979.547    59819.189 
Loop time of 339.643 on 1 procs for 5000 steps with 2400 atoms

Performance: 1.272 ns/day, 18.869 hours/ns, 14.721 timesteps/s
100.0% CPU use with 1 MPI tasks x 1 OpenMP threads

MPI task timing breakdown:
Section |  min time  |  avg time  |  max time  |%varavg| %total
---------------------------------------------------------------
Pair    | 283.68     | 283.68     | 283.68     |   0.0 | 83.52
Bond    | 0.0046268  | 0.0046268  | 0.0046268  |   0.0 |  0.00
Kspace  | 8.8411     | 8.8411     | 8.8411     |   0.0 |  2.60
Neigh   | 44.665     | 44.665     | 44.665     |   0.0 | 13.15
Comm    | 1.0267     | 1.0267     | 1.0267     |   0.0 |  0.30
Output  | 3.8319e-05 | 3.8319e-05 | 3.8319e-05 |   0.0 |  0.00
Modify  | 1.2908     | 1.2908     | 1.2908     |   0.0 |  0.38
Other   |            | 0.1306     |            |       |  0.04

Nlocal:        2400.00 ave        2400 max        2400 min
Histogram: 1 0 0 0 0 0 0 0 0 0
Nghost:        18930.0 ave       18930 max       18930 min
Histogram: 1 0 0 0 0 0 0 0 0 0
Neighs:    1.88192e+06 ave 1.88192e+06 max 1.88192e+06 min
Histogram: 1 0 0 0 0 0 0 0 0 0

Total # of neighbors = 1881919
Ave neighs/atom = 784.13292
Ave special neighs/atom = 8.5000000
Neighbor list builds = 429
Dangerous builds = 67
  create bodies CPU = 0.001 seconds
  200 rigid bodies with 2400 atoms
  3.8930168 = max distance from body owner to body atom
PPPM initialization ...
  using 12-bit tables for long-range coulomb (src/kspace.cpp:340)
  G vector (1/distance) = 0.1428774
  grid = 6 6 6
  stencil order = 5
  estimated absolute RMS force accuracy = 0.0078609937
  estimated relative force accuracy = 2.3673149e-05
  using double precision FFTW3
  3d grid and FFT values/proc = 1331 216
Setting up Verlet run ...
  Unit style    : real
  Current step  : 5000
  Time step     : 1
Per MPI rank memory allocation (min/avg/max) = 36.86 | 36.86 | 36.86 Mbytes
Step Temp E_pair E_mol TotEng Press Volume 
    5000    10007.798    1076.8405            0    12979.547    64643.675    29597.212 
 1005000    311.68333   -1317.4756            0   -946.77715     21.01324    30519.249 
Loop time of 57677.2 on 1 procs for 1000000 steps with 2400 atoms

Performance: 1.498 ns/day, 16.021 hours/ns, 17.338 timesteps/s
100.0% CPU use with 1 MPI tasks x 1 OpenMP threads

MPI task timing breakdown:
Section |  min time  |  avg time  |  max time  |%varavg| %total
---------------------------------------------------------------
Pair    | 53305      | 53305      | 53305      |   0.0 | 92.42
Bond    | 2.1156     | 2.1156     | 2.1156     |   0.0 |  0.00
Kspace  | 1785       | 1785       | 1785       |   0.0 |  3.09
Neigh   | 1531.2     | 1531.2     | 1531.2     |   0.0 |  2.65
Comm    | 163.76     | 163.76     | 163.76     |   0.0 |  0.28
Output  | 4.0605e-05 | 4.0605e-05 | 4.0605e-05 |   0.0 |  0.00
Modify  | 856        | 856        | 856        |   0.0 |  1.48
Other   |            | 33.65      |            |       |  0.06

Nlocal:        2400.00 ave        2400 max        2400 min
Histogram: 1 0 0 0 0 0 0 0 0 0
Nghost:        18814.0 ave       18814 max       18814 min
Histogram: 1 0 0 0 0 0 0 0 0 0
Neighs:    1.82821e+06 ave 1.82821e+06 max 1.82821e+06 min
Histogram: 1 0 0 0 0 0 0 0 0 0

Total # of neighbors = 1828208
Ave neighs/atom = 761.75333
Ave special neighs/atom = 8.5000000
Neighbor list builds = 15574
Dangerous builds = 0
PPPM initialization ...
  using 12-bit tables for long-range coulomb (src/kspace.cpp:340)
  G vector (1/distance) = 0.14221227
  grid = 6 6 6
  stencil order = 5
  estimated absolute RMS force accuracy = 0.0080640226
  estimated relative force accuracy = 2.4284565e-05
  using double precision FFTW3
  3d grid and FFT values/proc = 1331 216
Setting up Verlet run ...
  Unit style    : real
  Current step  : 0
  Time step     : 1
Per MPI rank memory allocation (min/avg/max) = 36.86 | 36.86 | 36.86 Mbytes
Step Temp Press v_dens Volume PotEng KinEng TotEng E_vdwl E_coul E_pair E_bond E_angle E_dihed E_impro E_mol E_long E_tail 
       0    311.68333    212.34521    850.01925    30519.249    -1317.511    370.69845   -946.81254   -1531.4157    790.21463    -1317.511            0            0            0            0            0   -576.30996   -27.545339 
    5000    302.46908    430.99838    883.28278    29369.924   -1383.8172    359.73955   -1024.0777   -1606.3209     798.5004   -1383.8172            0            0            0            0            0   -575.99669   -28.623262 
   10000     325.4151   -208.62027    852.37121    30435.036   -1332.5292    387.03023   -945.49895   -1552.4486    795.92658   -1332.5292            0            0            0            0            0   -576.00715   -27.621555 
   15000     300.6288    58.512531    870.87975     29788.21   -1374.1685    357.55082   -1016.6177   -1596.5365    798.59403   -1374.1685            0            0            0            0            0   -576.22605   -28.221335 
   20000    295.48351   -3.7157748    860.18669     30158.51   -1354.7641    351.43131   -1003.3328   -1565.6188    787.15028   -1354.7641            0            0            0            0            0   -576.29557    -27.87482 
   25000    282.20329   -180.21826    858.57804    30215.015   -1354.1963    335.63657   -1018.5597   -1571.1147    793.06788   -1354.1963            0            0            0            0            0   -576.14944   -27.822691 
   30000    277.85083   -187.17033    856.67025    30282.304   -1349.2757    330.45999   -1018.8157    -1568.932    795.80729   -1349.2757            0            0            0            0            0   -576.15099   -27.760868 
   35000    296.88465   -357.61292     857.8259    30241.508   -1355.0175    353.09775   -1001.9198   -1577.0282    798.30436   -1355.0175            0            0            0            0            0   -576.29365   -27.798317 
   40000    309.38839   -186.29643    849.91241    30523.085    -1323.815    367.96898   -955.84598   -1553.5512    805.81999    -1323.815            0            0            0            0            0   -576.08378   -27.541877 
   45000    296.64815    778.54637    875.18672    29641.616   -1363.9961    352.81646   -1011.1796   -1586.3926     798.4166   -1363.9961            0            0            0            0            0   -576.02008   -28.360904 
   50000    281.77693   -239.21268    871.06621    29781.833   -1382.1019    335.12948   -1046.9724   -1602.5017    796.64884   -1382.1019            0            0            0            0            0   -576.24901   -28.227377 
   55000    279.48283   -209.16828    856.49948    30288.341   -1345.9297    332.40101   -1013.5287   -1565.9721    796.00469   -1345.9297            0            0            0            0            0   -575.96227   -27.755334 
   60000    294.76383   -19.542579    858.37083    30222.309   -1333.2136    350.57536   -982.63824   -1560.2722    803.19078   -1333.2136            0            0            0            0            0   -576.13216   -27.815976 
   65000    288.84167   -5.8015392    852.35559    30435.594   -1322.4889    343.53188   -978.95706   -1547.3473    801.18997   -1322.4889            0            0            0            0            0   -576.33164   -27.621049 
   70000    288.71363   -449.28294    854.06758    30374.585   -1348.3744     343.3796   -1004.9948   -1564.5241    792.38983   -1348.3744            0            0            0            0            0   -576.24008   -27.676527 
   75000    296.25758    60.229322    870.72181    29793.613    -1365.834    352.35194    -1013.482   -1591.6385    801.84446    -1365.834            0            0            0            0            0   -576.03993   -28.216217 
   80000     270.6086    81.630514    871.76519    29757.954   -1377.7357     321.8465   -1055.8892   -1596.9909    795.31467   -1377.7357            0            0            0            0            0   -576.05939   -28.250028 
   85000    281.53591   -387.88194    848.10239    30588.227   -1335.0867    334.84282   -1000.2439    -1549.855    790.98747   -1335.0867            0            0            0            0            0   -576.21911   -27.483222 
   90000    287.96721    349.58675    873.00499    29715.694   -1366.3984    342.49184   -1023.9066   -1587.1507     797.0744   -1366.3984            0            0            0            0            0   -576.32216   -28.290204 
   95000    309.05309    223.83481    853.81367    30383.618   -1317.8021    367.57019   -950.23189   -1540.0447    798.55558   -1317.8021            0            0            0            0            0   -576.31294   -27.668299 
  100000    285.93981   -584.03806    847.47692    30610.802   -1328.1787    340.08058   -988.09815   -1547.6809    795.63729   -1328.1787            0            0            0            0            0   -576.13515   -27.462953 
  105000    286.41338   -220.16285     856.7187    30280.591   -1333.1264    340.64381    -992.4826    -1559.863    802.72568   -1333.1264            0            0            0            0            0   -575.98905   -27.762438 
  110000    307.34009    -20.91313    875.63584    29626.413   -1392.6549    365.53284    -1027.122   -1606.7222    790.26779   -1392.6549            0            0            0            0            0   -576.20047   -28.375458 
  115000    297.58797   -163.81151    880.52173     29462.02   -1402.5067    353.93424   -1048.5725   -1621.4497    795.02892   -1402.5067            0            0            0            0            0   -576.08594   -28.533788 
  120000    285.92597   -170.13789    869.66182    29829.927   -1368.5664    340.06411   -1028.5023   -1595.9266    803.32584   -1368.5664            0            0            0            0            0   -575.96565   -28.181867 
  125000    298.79793   -84.774501     862.6319    30073.022   -1347.4148    355.37328    -992.0415   -1576.2713    805.22888   -1347.4148            0            0            0            0            0   -576.37237   -27.954059 
  130000     303.6778   -292.37363    864.19621    30018.586   -1374.9777    361.17713   -1013.8005   -1591.0069    792.45106   -1374.9777            0            0            0            0            0   -576.42186   -28.004751 
  135000    281.56015   -442.68683    862.73686    30069.364   -1357.0692    334.87166   -1022.1975   -1583.1939    802.20536   -1357.0692            0            0            0            0            0   -576.08064    -27.95746 
  140000    297.13845    -41.03142    871.03243    29782.988   -1376.4127     353.3996   -1023.0131   -1601.0397    800.69605   -1376.4127            0            0            0            0            0   -576.06897   -28.226282 
  145000    305.33928    478.87193    873.74831    29690.414   -1362.4135     363.1532    -999.2603   -1585.9848    799.67331   -1362.4135            0            0            0            0            0   -576.10199   -28.314292 
  150000    273.60403   -235.32602    844.72052    30710.688   -1310.6201    325.40909     -985.211   -1528.0936    793.74376   -1310.6201            0            0            0            0            0   -576.27025    -27.37363 
  155000    313.66395    350.24507    881.73208    29421.577   -1392.4816    373.05409   -1019.4275   -1611.0441    794.85397   -1392.4816            0            0            0            0            0   -576.29146    -28.57301 
  160000    298.17325   -198.95706    884.00006    29346.094   -1413.1565    354.63033   -1058.5262   -1626.5174    789.55206   -1413.1565            0            0            0            0            0   -576.19116   -28.646505 
  165000    298.39407   -247.89852     851.6338    30461.389   -1330.9117    354.89296   -976.01879   -1548.7953    794.18046   -1330.9117            0            0            0            0            0   -576.29694   -27.597659 
  170000    297.37043    179.59113    861.71362     30105.07   -1335.8513     353.6755   -982.17581   -1554.6472    795.10098   -1335.8513            0            0            0            0            0   -576.30509   -27.924301 
  175000     276.2473   -102.54728    869.59063    29832.369   -1372.2228    328.55285   -1043.6699   -1599.9152     803.8501   -1372.2228            0            0            0            0            0   -576.15763    -28.17956 
  180000     277.4938    84.805684    853.95011    30378.764   -1316.2592    330.03536   -986.22379   -1542.5775    802.64157   -1316.2592            0            0            0            0            0   -576.32323    -27.67272 
  185000     302.2108    6.7184173    872.82562      29721.8   -1367.5503    359.43237    -1008.118   -1595.1097    803.77876   -1367.5503            0            0            0            0            0   -576.21936   -28.284392 
  190000    294.94171    -554.0546    852.24608    30439.505   -1346.9728    350.78692   -996.18585   -1569.5473    798.65712   -1346.9728            0            0            0            0            0   -576.08261     -27.6175 
  195000    294.95411   -308.39829    839.43447    30904.078   -1302.5545    350.80167   -951.75281   -1529.7708    803.24019   -1302.5545            0            0            0            0            0    -576.0239   -27.202333 
  200000    296.57086   -106.69923    849.64768    30532.595   -1312.9184    352.72453   -960.19384   -1541.7436    805.04787   -1312.9184            0            0            0            0            0   -576.22269   -27.533298 
  205000    300.76644   -26.666926    879.83669    29484.959   -1401.3597    357.71452   -1043.6451   -1614.8869    789.54841   -1401.3597            0            0            0            0            0    -576.0212   -28.511589 
  210000     328.9965    333.18979     859.3727    30187.076   -1324.2573    391.28976    -932.9675   -1554.3611    806.19004   -1324.2573            0            0            0            0            0    -576.0862   -27.848442 
  215000    296.77045   -149.18584    853.10134    30408.988   -1325.0164    352.96192   -972.05451   -1547.4049    798.46691   -1325.0164            0            0            0            0            0    -576.0784   -27.645215 
  220000     272.0297    465.45996    879.36926    29500.632   -1370.6373    323.53668   -1047.1006   -1592.4045    797.92584   -1370.6373            0            0            0            0            0   -576.15868   -28.496442 
  225000     285.6083    439.95634    862.70232    30070.568    -1334.658    339.68629   -994.97173   -1555.5314     796.9525    -1334.658            0            0            0            0            0   -576.07914   -27.956341 
  230000    302.47775     168.2093    862.48812    30078.036   -1340.9424    359.74985   -981.19252   -1570.1702    805.46875   -1340.9424            0            0            0            0            0   -576.24091   -27.949399 
  235000    282.78942   -54.694026    847.27937     30617.94   -1316.8952    336.33368   -980.56155   -1538.6028    797.71368   -1316.8952            0            0            0            0            0   -576.00615   -27.456551 
  240000    310.52208     317.6966     848.1373    30586.968   -1297.0179    369.31732   -927.70054   -1527.4843    806.41739   -1297.0179            0            0            0            0            0   -575.95091   -27.484353 
  245000    301.88123   -145.26854    870.03145    29817.254    -1379.253    359.04039   -1020.2127   -1598.7912    795.81703    -1379.253            0            0            0            0            0   -576.27883   -28.193845 
  250000    313.52728   -734.06528    863.61749    30038.702   -1382.9739    372.89154   -1010.0824   -1599.5668    792.47212   -1382.9739            0            0            0            0            0   -575.87924   -27.985997 
  255000    280.90922   -329.08807    851.34336    30471.781   -1326.2157    334.09748   -992.11821   -1557.3961    807.18579   -1326.2157            0            0            0            0            0   -576.00535   -27.588247 
  260000    282.25455    297.64284    866.07936    29953.316   -1342.8669    335.69753   -1007.1694   -1567.7332    800.60788   -1342.8669            0            0            0            0            0   -575.74157   -28.065775 
  265000    324.52368    320.73969    880.16651     29473.91   -1395.2725    385.97003   -1009.3024   -1614.1024    794.86279   -1395.2725            0            0            0            0            0   -576.03286   -28.522277 
  270000     291.8073     228.9031    867.04964    29919.796   -1351.4402    347.05903   -1004.3812   -1569.0276    793.52648   -1351.4402            0            0            0            0            0   -575.93913   -28.097218 
  275000    304.99639   -337.45174    849.05073    30554.062    -1325.801    362.74538   -963.05562   -1552.1823    802.48162    -1325.801            0            0            0            0            0   -576.10035   -27.513953 
  280000    305.94986   -459.12181    859.72672    30174.645   -1348.9143    363.87939   -985.03487   -1572.5405    799.61586   -1348.9143            0            0            0            0            0   -575.98959   -27.859914 
  285000    295.34439    95.178932    867.84145    29892.498   -1357.4071    351.26585   -1006.1412   -1576.6803     795.5733   -1357.4071            0            0            0            0            0   -576.30013   -28.122877 
  290000    287.39487    379.15344    877.61652    29559.549   -1373.8857    341.81114   -1032.0746   -1596.2537    798.45092   -1373.8857            0            0            0            0            0   -576.08297   -28.439643 
  295000    290.52795    248.85978    854.38937    30363.145   -1311.4623    345.53745   -965.92489   -1534.1804    798.53564   -1311.4623            0            0            0            0            0   -575.81761   -27.686955 
  300000      299.125   -158.46828    879.28189    29503.563   -1398.3584    355.76229   -1042.5961    -1622.429    800.25064   -1398.3584            0            0            0            0            0   -576.18009    -28.49361 
  305000    283.49294   -130.74258    852.93631    30414.872   -1323.7605     337.1704   -986.59005   -1546.8268    799.22423   -1323.7605            0            0            0            0            0   -576.15785   -27.639868 
  310000     282.6347   -46.211159    851.68466     30459.57   -1313.1085    336.14966   -976.95886   -1534.6313     797.7056   -1313.1085            0            0            0            0            0   -576.18285   -27.599307 
  315000    282.52353   -123.64589    865.28283    29980.889   -1353.7486    336.01744   -1017.7312   -1574.4187    796.77312   -1353.7486            0            0            0            0            0   -576.10304   -28.039963 
  320000    286.47363    92.063284    878.89914    29516.412   -1389.7525    340.71547    -1049.037   -1614.3464    800.57701   -1389.7525            0            0            0            0            0   -575.98316   -28.481207 
  325000    283.54223    375.59697    876.48242    29597.797   -1370.4431    337.22903   -1033.2141   -1594.9372    800.65739   -1370.4431            0            0            0            0            0   -576.16331   -28.402892 
  330000    270.29404   -39.938675      857.698    30246.017   -1341.2514    321.47238    -1019.779   -1563.7023    798.50419   -1341.2514            0            0            0            0            0   -576.05335   -27.794173 
  335000    288.66709   -303.62081     830.3283    31243.002    -1276.759    343.32424   -933.43477    -1499.061    798.50469    -1276.759            0            0            0            0            0   -576.20275   -26.907243 
  340000    272.79174   -189.51214    865.15058    29985.472   -1361.2178    324.44301   -1036.7748   -1585.6785    800.45749   -1361.2178            0            0            0            0            0   -575.99676   -28.035678 
  345000    276.85115   -188.69038    854.36637    30363.963   -1334.5065    329.27104   -1005.2355   -1557.8327    799.37091   -1334.5065            0            0            0            0            0   -576.04478    -27.68621 
  350000    297.76534   -440.67569    850.80448    30491.081   -1338.9884    354.14518   -984.84317   -1557.9788    795.29139   -1338.9884            0            0            0            0            0   -576.30093   -27.570784 
  355000    283.14783   -421.99363    871.69171    29760.463    -1382.882    336.75995    -1046.122   -1606.0164    799.12198    -1382.882            0            0            0            0            0   -575.98751   -28.247647 
  360000    290.55607    12.263909    869.34999    29840.627   -1367.0033    345.57089   -1021.4324   -1584.4677    793.17919   -1367.0033            0            0            0            0            0   -575.71472   -28.171762 
  365000    302.27886    210.28303    859.07284    30197.612   -1322.8116    359.51331   -963.29829   -1557.0758    809.99915   -1322.8116            0            0            0            0            0   -575.73495   -27.838725 
  370000    299.63593    448.94525    854.40765    30362.496   -1317.1585    356.36996    -960.7885   -1538.8179    797.68394   -1317.1585            0            0            0            0            0   -576.02446   -27.687547 
  375000    316.88609   -44.010961    866.10416    29952.458   -1363.7741    376.88632   -986.88776   -1580.0151    792.51112   -1363.7741            0            0            0            0            0   -576.27009   -28.066579 
  380000    300.30132   -25.212581    851.61326    30462.124   -1320.3439    357.16134   -963.18255   -1544.3177    799.95611   -1320.3439            0            0            0            0            0   -575.98232   -27.596994 
  385000    297.01174    120.18367      869.616    29831.499   -1358.5865    353.24889   -1005.3376    -1583.639    800.85547   -1358.5865            0            0            0            0            0   -575.80296   -28.180382 
  390000    292.75236    57.683046    842.27769    30799.758   -1299.5753    348.18304    -951.3923   -1523.1049    799.76672   -1299.5753            0            0            0            0            0   -576.23713   -27.294469 
  395000    291.32422    150.32702    873.39997    29702.255   -1383.2326    346.48449   -1036.7481   -1598.6489    791.51191   -1383.2326            0            0            0            0            0    -576.0956   -28.303004 
  400000    284.66167    254.34835    862.50743    30077.363   -1345.9048    338.56043   -1007.3444   -1563.6964    793.90697   -1345.9048            0            0            0            0            0   -576.11538   -27.950025 
  405000    292.36979   -150.09388     847.4632    30611.298   -1303.6695    347.72803   -955.94146   -1531.0647    803.50797   -1303.6695            0            0            0            0            0   -576.11276   -27.462508 
  410000    282.10433   -56.735133    854.41857    30362.108   -1331.5362    335.51887   -996.01734   -1553.8392    798.31538   -1331.5362            0            0            0            0            0   -576.01237   -27.687901 
  415000    329.71626    315.42066    871.44471    29768.898   -1361.7981    392.14579   -969.65226   -1581.3774    795.55256   -1361.7981            0            0            0            0            0    -575.9732   -28.239642 
  420000    301.78529   -109.01754    854.93831     30343.65   -1327.6716    358.92628   -968.74536   -1549.3692    797.55297   -1327.6716            0            0            0            0            0   -575.85539   -27.704744 
  425000    322.25837    353.79543    855.45236    30325.416   -1315.8442    383.27581   -932.56841   -1544.5469    804.89228   -1315.8442            0            0            0            0            0    -576.1896   -27.721401 
  430000     280.3478    197.46828    863.75691    30033.853    -1342.763    333.42976   -1009.3332   -1571.4002    804.49761    -1342.763            0            0            0            0            0   -575.86033   -27.990515 
  435000    294.54141    47.267718    855.36825    30328.398   -1324.3938    350.31083   -974.08301   -1548.1804    799.99533   -1324.3938            0            0            0            0            0   -576.20873   -27.718676 
  440000    289.16655    299.76022    855.97291    30306.974    -1322.227    343.91828   -978.30867   -1541.9906    795.75267    -1322.227            0            0            0            0            0   -575.98903    -27.73827 
  445000    300.12487    121.64377    861.76066    30103.426   -1344.8911    356.95148   -987.93962   -1569.0048    800.09543   -1344.8911            0            0            0            0            0   -575.98178   -27.925826 
  450000     269.8792    142.75234    867.85859    29891.907    -1354.764      320.979    -1033.785   -1576.6591    797.99566    -1354.764            0            0            0            0            0   -576.10063   -28.123432 
  455000    284.10663    213.19302    859.54851    30180.901   -1320.5313     337.9003   -982.63098   -1545.7243     801.4969   -1320.5313            0            0            0            0            0   -576.30389    -27.85414 
  460000    307.37858    -211.7696    867.27894    29911.886   -1365.2853    365.57862   -999.70672   -1589.5414    800.27911   -1365.2853            0            0            0            0            0   -576.02308   -28.104648 
  465000    303.73078   -223.63612    862.82704    30066.221   -1356.2751    361.24014   -995.03498   -1580.0257    800.04527   -1356.2751            0            0            0            0            0   -576.29473   -27.960382 
  470000    285.89597   -138.73892    860.80493     30136.85   -1336.9518    340.02843   -996.92334   -1563.5195    802.63536   -1336.9518            0            0            0            0            0   -576.06767   -27.894854 
  475000    314.58259    201.72351    857.60401    30249.332   -1333.0668    374.14667   -958.92016   -1552.3966    795.45594   -1333.0668            0            0            0            0            0   -576.12617   -27.791127 
  480000     288.7797    295.45236    876.68983    29590.795   -1382.1698    343.45818   -1038.7116   -1600.6436    794.61259   -1382.1698            0            0            0            0            0   -576.13877   -28.409613 
  485000    294.81439    89.430757    872.37142    29737.275    -1371.196     350.6355   -1020.5605   -1596.2725    801.09379    -1371.196            0            0            0            0            0   -576.01732   -28.269673 
  490000    302.34095   -169.26399    857.31385     30259.57   -1332.8633    359.58715   -973.27616   -1559.0816    802.21952   -1332.8633            0            0            0            0            0   -576.00118   -27.781724 
  495000    277.63235   -421.66136    878.61406    29525.988   -1409.4831    330.20015    -1079.283   -1623.2809    790.08948   -1409.4831            0            0            0            0            0   -576.29172   -28.471969 
  500000    306.89562   -165.01606    869.43485    29837.714   -1374.2094    365.00422   -1009.2052   -1591.2535    793.35413   -1374.2094            0            0            0            0            0   -576.31006   -28.174512 
  505000    303.72374    75.189089    869.18069    29846.439   -1357.8412    361.23177   -996.60948   -1586.4237    804.74796   -1357.8412            0            0            0            0            0   -576.16551   -28.166275 
  510000    306.51035    262.98158    866.72004    29931.174   -1352.6512      364.546   -988.10515   -1570.1367    793.73799   -1352.6512            0            0            0            0            0   -576.25242   -28.086537 
  515000    275.57802   -305.76404    874.79741    29654.807   -1389.3447    327.75685   -1061.5879   -1609.1828    795.91768   -1389.3447            0            0            0            0            0    -576.0796   -28.348289 
  520000    299.75287    232.80512    883.73208    29354.992   -1398.5459    356.50904   -1042.0368    -1623.996    801.68966   -1398.5459            0            0            0            0            0   -576.23958   -28.637821 
  525000    294.69974   -34.820648    852.63876    30425.486   -1324.3988    350.49913   -973.89962   -1547.3677     799.2339   -1324.3988            0            0            0            0            0   -576.26491   -27.630225 
  530000    277.54971   -174.90425    845.11767    30696.256   -1325.7041    330.10186   -995.60222   -1546.2485    796.78788   -1325.7041            0            0            0            0            0   -576.24344     -27.3865 
  535000    302.98402   -229.03801    853.96667    30378.175   -1353.7938    360.35199   -993.44184   -1575.3202    797.38151   -1353.7938            0            0            0            0            0   -575.85511   -27.673257 
  540000    277.05317   -530.01776    860.52934    30146.501   -1364.5079     329.5113   -1034.9966   -1595.5332    806.95629   -1364.5079            0            0            0            0            0   -575.93095   -27.885924 
  545000    300.29097    23.160742    849.55572      30535.9   -1312.8871    357.14903   -955.73807   -1537.2807    800.53075   -1312.8871            0            0            0            0            0   -576.13711   -27.530318 
  550000    301.81758    80.616171    868.67023    29863.978    -1363.776    358.96469   -1004.8113   -1584.1755     796.7585    -1363.776            0            0            0            0            0   -576.35899   -28.149734 
  555000    310.79689    37.798894    861.48347    30113.112    -1359.584    369.64417   -989.93985   -1574.2768    790.91194    -1359.584            0            0            0            0            0   -576.21916   -27.916843 
  560000    293.67246    213.15233    880.91572    29448.843   -1391.2989    349.27735   -1042.0215   -1612.2915    797.04695   -1391.2989            0            0            0            0            0   -576.05433   -28.546556 
  565000    300.99477   -141.55585    853.38677    30398.817   -1332.6118    357.98608   -974.62572   -1558.6592    802.16845   -1332.6118            0            0            0            0            0   -576.12107   -27.654465 
  570000    294.68006   -241.67473    871.40674    29770.195   -1379.2262    350.47573   -1028.7505   -1602.5816    799.56684   -1379.2262            0            0            0            0            0   -576.21144   -28.238412 
  575000    309.12274    191.76557    865.48538    29973.873   -1361.0128    367.65303   -993.35979   -1574.6119    789.69607   -1361.0128            0            0            0            0            0   -576.09696   -28.046527 
  580000    280.48221    536.90743    874.19795    29675.142    -1362.962    333.58961   -1029.3723   -1583.6564    796.87016    -1362.962            0            0            0            0            0   -576.17575   -28.328863 
  585000    304.11122    76.163511    868.15215      29881.8    -1360.982    361.69261   -999.28936    -1586.359    801.37832    -1360.982            0            0            0            0            0   -576.00127   -28.132945 
  590000    290.80747    630.23591    876.17379    29608.222   -1358.5904    345.86989   -1012.7205   -1588.4271    805.84823   -1358.5904            0            0            0            0            0    -576.0115   -28.392891 
  595000    300.65045   -96.091912    848.16297    30586.043   -1318.8205    357.57657   -961.24391   -1541.8923    799.28956   -1318.8205            0            0            0            0            0   -576.21773   -27.485185 
  600000    303.80994   -54.798435    855.16388    30335.646   -1331.0297    361.33429   -969.69539     -1558.32    803.43193   -1331.0297            0            0            0            0            0   -576.14157   -27.712053 
  605000     295.4001    330.97795    863.72019    30035.131   -1337.3007    351.33211   -985.96859   -1566.7137    805.56919   -1337.3007            0            0            0            0            0   -576.15617   -27.989325 
  610000    280.77506    156.80785    867.43028    29906.667   -1357.0801    333.93791   -1023.1421    -1576.969    796.00679   -1357.0801            0            0            0            0            0   -576.11784   -28.109552 
  615000    297.20029   -237.80417    862.58035     30074.82   -1357.1818    353.47314   -1003.7087   -1579.5383    798.51673   -1357.1818            0            0            0            0            0   -576.16021   -27.952388 
  620000    317.90378    -139.2099    871.59597    29763.732   -1372.5741     378.0967   -994.47739   -1598.9953    802.59267   -1372.5741            0            0            0            0            0   -576.17145   -28.244544 
  625000    295.03177   -267.59032    857.49497    30253.179   -1341.9247    350.89404   -991.03066   -1565.8704    800.10642   -1341.9247            0            0            0            0            0    -576.1607   -27.787593 
  630000    309.59016   -345.14344    857.13901    30265.743   -1345.5299    368.20895   -977.32094   -1567.3745    798.11911   -1345.5299            0            0            0            0            0   -576.27445   -27.776058 
  635000    289.89308    310.43059    876.42246    29599.822   -1389.6572    344.78237   -1044.8748   -1607.0599    793.52289   -1389.6572            0            0            0            0            0   -576.12019   -28.400949 
  640000    305.76946   -180.61855    871.75493    29758.304   -1378.7285    363.66483   -1015.0637   -1602.1309    799.57905   -1378.7285            0            0            0            0            0   -576.17673   -28.249695 
  645000    301.79628   -509.62022    867.49163    29904.552   -1377.1599    358.93936   -1018.2205    -1600.795     799.9327   -1377.1599            0            0            0            0            0   -576.29762   -28.111541 
  650000    310.33788    294.94927     863.5905    30039.641   -1335.9877    369.09825   -966.88944   -1558.6347    798.75512   -1335.9877            0            0            0            0            0   -576.10806   -27.985123 
  655000    287.42795    143.82324    857.83111    30241.324   -1339.4641    341.85049   -997.61357   -1558.8696    795.79236   -1339.4641            0            0            0            0            0   -576.38683   -27.798486 
  660000    290.61114   -237.64499    853.50723    30394.527    -1334.806    345.63638   -989.16961   -1552.2492     793.6186    -1334.806            0            0            0            0            0   -576.17542   -27.658368 
  665000    305.71546   -238.69207    866.00942    29955.735   -1375.3536    363.60061    -1011.753   -1595.1868    795.91927   -1375.3536            0            0            0            0            0   -576.08612   -28.063509 
  670000    296.97737   -23.506486    887.28383    29237.486     -1413.87    353.20801    -1060.662   -1632.3844    794.80826     -1413.87            0            0            0            0            0   -576.29385   -28.752918 
  675000    293.88095    2.2091801    861.44086    30114.602   -1336.9903    349.52531   -987.46499    -1566.348     805.6463   -1336.9903            0            0            0            0            0   -576.28863   -27.915462 
  680000    285.50539    235.92355    870.65926    29795.754   -1350.2679    339.56389    -1010.704   -1575.1926    800.94046   -1350.2679            0            0            0            0            0   -576.01574   -28.214189 
  685000    288.28751    582.31248    877.30913    29569.906   -1368.4266    342.87279   -1025.5539   -1591.1176    798.96528   -1368.4266            0            0            0            0            0   -576.27437   -28.429682 
  690000    298.83018   -128.93764    871.23712    29775.991   -1384.4943    355.41164   -1029.0827   -1602.1623    793.93356   -1384.4943            0            0            0            0            0   -576.26562   -28.232915 
  695000    307.98861    361.24683    869.04535    29851.087   -1356.9365    366.30416   -990.63231   -1576.3606    795.60091   -1356.9365            0            0            0            0            0   -576.17681    -28.16189 
  700000    300.36945    851.65511    881.01468    29445.535    -1367.268    357.24237   -1010.0256   -1588.3648    797.28829    -1367.268            0            0            0            0            0   -576.19152   -28.549763 
  705000    270.44782    349.74838    878.72913    29522.122   -1373.9796    321.65528   -1052.3243   -1601.3308     803.6931   -1373.9796            0            0            0            0            0   -576.34188   -28.475698 
  710000    304.38806   -212.96053    861.16579    30124.221   -1355.1116    362.02188   -993.08969   -1583.3428    804.55647   -1355.1116            0            0            0            0            0   -576.32524   -27.906549 
  715000    302.66606    341.29839    885.89836    29283.211   -1400.1266    359.97382   -1040.1527   -1620.7271    796.77458   -1400.1266            0            0            0            0            0   -576.17401   -28.708021 
  720000    292.49516   -74.914861    849.75264    30528.824   -1324.3575    347.87714   -976.48039   -1540.6605    792.39805   -1324.3575            0            0            0            0            0   -576.09504   -27.536699 
  725000    281.89284   -343.80162    855.99517    30306.186   -1343.4623    335.26733    -1008.195   -1563.3162    796.08872   -1343.4623            0            0            0            0            0   -576.23486   -27.738992 
  730000    282.53229    -331.4657    853.50131    30394.738    -1335.429    336.02786   -999.40111   -1559.1493    799.95072    -1335.429            0            0            0            0            0   -576.23039   -27.658177 
  735000    304.18873   -372.72191    863.11092    30056.332   -1360.6002    361.78481   -998.81539   -1590.7235    805.95538   -1360.6002            0            0            0            0            0   -575.83209   -27.969582 
  740000    300.34615     193.1059    870.78117    29791.582   -1374.1381    357.21466   -1016.9235    -1587.067    789.01762   -1374.1381            0            0            0            0            0    -576.0888    -28.21814 
  745000      285.787    -7.424321    863.03559    30058.956   -1349.6648    339.89883   -1009.7659   -1575.8664    802.41687   -1349.6648            0            0            0            0            0   -576.21525    -27.96714 
  750000    309.32409   -48.927497    849.04399    30554.305   -1313.8282    367.89251   -945.93572   -1536.1963    798.38014   -1313.8282            0            0            0            0            0   -576.01211   -27.513735 
  755000    270.82522   -47.894229     864.5122    30007.614   -1362.0874    322.10413   -1039.9832   -1582.7263    796.90318   -1362.0874            0            0            0            0            0   -576.26423   -28.014991 
  760000      305.437   -169.02237    859.89963    30168.578   -1340.8349    363.26943    -977.5655   -1570.3231    805.64026   -1340.8349            0            0            0            0            0   -576.15211   -27.865518 
  765000    290.63828    118.90929    857.35728    30258.038   -1327.9348    345.66866    -982.2661   -1549.5441    797.99942   -1327.9348            0            0            0            0            0   -576.39004   -27.783131 
  770000    295.91797    392.56189    864.77475    29998.504   -1340.3767    351.94803   -988.42872   -1560.9704    796.80542   -1340.3767            0            0            0            0            0   -576.21174   -28.023499 
  775000     301.8438   -215.32012    864.90149    29994.108    -1371.414    358.99587   -1012.4181   -1587.8017    792.41781    -1371.414            0            0            0            0            0   -576.03008   -28.027606 
  780000    280.92676    182.11247    866.40939    29941.906   -1349.6888    334.11834   -1015.5705   -1572.0703    798.73281   -1349.6888            0            0            0            0            0   -576.35132    -28.07647 
  785000    286.12551    13.939744    870.70805    29794.084   -1384.9421    340.30143   -1044.6407   -1596.5973     787.8933   -1384.9421            0            0            0            0            0   -576.23812   -28.215771 
  790000    303.78635   -627.30574    847.99981    30591.927   -1329.3322    361.30623   -968.02593   -1554.7128    801.50618   -1329.3322            0            0            0            0            0   -576.12556   -27.479898 
  795000    293.03753   -248.15915    852.56056    30428.277   -1335.5937     348.5222   -987.07146   -1554.1901    794.71312   -1335.5937            0            0            0            0            0   -576.11665   -27.627691 
  800000    296.41137     77.58454    856.80124    30277.674   -1322.1158    352.53486   -969.58096    -1548.521    802.50518   -1322.1158            0            0            0            0            0   -576.10002   -27.765113 
  805000    297.83714    157.29058    858.97267    30201.134   -1324.4803    354.23058   -970.24976   -1550.8469    802.55222   -1324.4803            0            0            0            0            0   -576.18571   -27.835479 
  810000    302.61672    60.061593    860.50185    30147.464   -1341.5955    359.91514   -981.68033   -1566.5564    801.08107   -1341.5955            0            0            0            0            0    -576.1201   -27.885033 
  815000    300.95323   -50.736158    849.35957    30542.952   -1326.6275    357.93668   -968.69086   -1539.0834     788.7747   -1326.6275            0            0            0            0            0    -576.3188   -27.523962 
  820000     310.3727   -112.24939    852.32346    30436.741   -1322.6134    369.13967   -953.47369   -1552.5596    806.15607   -1322.6134            0            0            0            0            0   -576.20979   -27.620008 
  825000    299.39098    455.13611    865.71345    29965.976   -1332.5721    356.07863   -976.49347   -1558.8289    802.26256   -1332.5721            0            0            0            0            0   -576.00572   -28.053918 
  830000     307.3733   -256.76096    857.45765    30254.496   -1339.2672    365.57235   -973.69489   -1571.9026    808.73377   -1339.2672            0            0            0            0            0   -576.09846   -27.786384 
  835000    305.55052   -43.999691    855.80249    30313.009   -1336.3552    363.40444   -972.95077   -1555.0827    794.94004   -1336.3552            0            0            0            0            0   -576.21258   -27.732748 
  840000    291.56237    136.32563    855.30745    30330.554   -1337.4912    346.76773   -990.72348   -1545.0455    783.85975   -1337.4912            0            0            0            0            0   -576.30549   -27.716706 
  845000    306.92602   -42.200135    876.00303    29613.994   -1393.1883    365.04037    -1028.148   -1614.3873    797.41261   -1393.1883            0            0            0            0            0   -576.21364   -28.387357 
  850000     286.0573    495.55265     873.2923    29705.917   -1354.2133    340.22031   -1013.9929    -1575.813    797.89537   -1354.2133            0            0            0            0            0   -576.29566   -28.299515 
  855000    304.81394    556.56024    871.24556    29775.702   -1340.1813    362.52839   -977.65287   -1565.5054    801.52864   -1340.1813            0            0            0            0            0   -576.20452   -28.233189 
  860000    323.89072    68.658836    876.41088    29600.213   -1383.6566    385.21723   -998.43941   -1605.2825    797.81016   -1383.6566            0            0            0            0            0   -576.18435   -28.400574 
  865000    284.80058    710.41225    876.86209    29584.981   -1353.7155    338.72563   -1014.9899   -1576.7036    799.27609   -1353.7155            0            0            0            0            0   -576.28804   -28.415196 
  870000    292.18602    -49.40148    859.85962    30169.981   -1345.1195    347.50945   -997.61005   -1565.7893    796.74186   -1345.1195            0            0            0            0            0   -576.07202   -27.864221 
  875000    272.73356   -143.66497    873.44679    29700.663   -1390.1804    324.37381   -1065.8066   -1601.7872    787.72611   -1390.1804            0            0            0            0            0   -576.11934   -28.304521 
  880000    305.15504    -315.4336     857.0958    30267.269   -1352.9912    362.93407    -990.0571   -1575.6511    798.88061   -1352.9912            0            0            0            0            0    -576.2207   -27.774658 
  885000    314.18539   -119.70501    854.15463     30371.49   -1342.2319    373.67426   -968.55769    -1559.445    793.51288   -1342.2319            0            0            0            0            0   -576.29983   -27.679348 
  890000     291.3695      21.3763    859.83226    30170.941   -1341.9306    346.53833   -995.39224   -1568.8978    803.00248   -1341.9306            0            0            0            0            0   -576.03529   -27.863335 
  895000      312.374   -15.325118    839.15283    30914.451   -1295.0145    371.51989   -923.49462   -1524.2571    805.26797   -1295.0145            0            0            0            0            0   -576.02539   -27.193206 
  900000    319.65077    40.982444    861.66466     30106.78   -1329.9059    380.17448   -949.73144   -1558.2146    804.54469   -1329.9059            0            0            0            0            0   -576.23597   -27.922714 
  905000    278.90348   -244.66777    854.39613    30362.905   -1334.9062    331.71197   -1003.1942   -1560.5176    801.85497   -1334.9062            0            0            0            0            0   -576.24347   -27.687174 
  910000    292.19744   -218.62931    873.74423    29690.552   -1385.7825    347.52304   -1038.2595   -1616.5365     806.8655   -1385.7825            0            0            0            0            0   -576.11155    -28.31416 
  915000    295.76591   -252.47738    852.91542    30415.617   -1335.9135    351.76718   -984.14628   -1554.8315    794.97325   -1335.9135            0            0            0            0            0   -576.05518   -27.639191 
  920000    299.51305   -107.50706    861.81463    30101.541   -1339.7314    356.22381   -983.50755   -1572.0766    808.53502   -1339.7314            0            0            0            0            0   -576.18976   -27.927574 
  925000    305.07221    194.42328    875.87155     29618.44   -1383.4926    362.83557    -1020.657   -1603.7258    796.35711   -1383.4926            0            0            0            0            0   -576.12391   -28.383096 
  930000    313.13766    270.81747    867.70176     29897.31   -1349.0161    372.42815    -976.5879   -1575.4962    802.57524   -1349.0161            0            0            0            0            0   -576.09513    -28.11835 
  935000    313.21294   -146.98202    864.45085    30009.744   -1364.6577    372.51768   -992.14002   -1588.9282    800.59905   -1364.6577            0            0            0            0            0   -576.32856   -28.013002 
  940000    299.16787     -409.836    855.82715    30312.136   -1348.8767    355.81327   -993.06343   -1570.1157    797.44867   -1348.8767            0            0            0            0            0   -576.20962   -27.733547 
  945000    291.49071   -308.19406    862.41069    30080.736   -1364.4056    346.68249   -1017.7231   -1587.3279    799.15147   -1364.4056            0            0            0            0            0   -576.22918    -27.94689 
  950000    294.15074   -24.839128    857.68127    30246.607   -1335.8705    349.84619   -986.02434   -1560.8228     801.1482   -1335.8705            0            0            0            0            0   -576.19597   -27.793631 
  955000    315.01323    536.31928    869.03838    29851.327    -1351.607    374.65885   -976.94816   -1569.6217    794.30572    -1351.607            0            0            0            0            0     -576.291   -28.161664 
  960000    317.05825   -192.08267    884.82566    29318.712    -1418.877    377.09108   -1041.7859   -1636.0123    793.55703    -1418.877            0            0            0            0            0   -576.42168   -28.673259 
  965000    301.65212     423.9585    887.06105    29244.829   -1398.2928     358.7679   -1039.5249     -1617.14    794.91615   -1398.2928            0            0            0            0            0   -576.06894   -28.745698 
  970000    261.97136   -66.449334    879.05209    29511.276   -1397.2339    311.57386     -1085.66      -1616.5    795.31812   -1397.2339            0            0            0            0            0   -576.05203   -28.486164 
  975000    286.79329    371.87554     882.4891    29396.339    -1375.945    341.09566   -1034.8493   -1604.6082    804.74488    -1375.945            0            0            0            0            0   -576.08166   -28.597542 
  980000    303.07776     811.6088    873.05282    29714.065   -1346.0354    360.46347   -985.57195   -1567.9348    798.01458   -1346.0354            0            0            0            0            0    -576.1152   -28.291754 
  985000    296.21566    73.225149    867.34606    29909.571   -1363.3836    352.30209   -1011.0815   -1579.4661     792.2469   -1363.3836            0            0            0            0            0   -576.16437   -28.106823 
  990000    298.93739     79.09149    859.92226    30167.784   -1354.1289    355.53915   -998.58978   -1568.7736    790.84569   -1354.1289            0            0            0            0            0   -576.20105   -27.866251 
  995000    276.39072   -302.41882    858.65368    30212.354   -1352.0517    328.72343   -1023.3283   -1578.1399    802.16106   -1352.0517            0            0            0            0            0   -576.07291   -27.825142 
 1000000    287.01666    29.670716    859.82619    30171.154   -1337.3522    341.36131   -995.99092   -1567.8007      806.504   -1337.3522            0            0            0            0            0    -576.0555   -27.863138 
 1005000    306.55164    191.32143    856.23689     30297.63   -1339.4675    364.59511    -974.8724    -1553.156    789.69832   -1339.4675            0            0            0            0            0   -576.00987   -27.746825 
 1010000    301.86556    293.34934    855.88903    30309.944   -1319.6785    359.02175   -960.65676   -1537.8488    794.37044   -1319.6785            0            0            0            0            0   -576.20016   -27.735552 
 1015000    298.58927   -119.27575    865.73657    29965.176   -1352.4601    355.12512   -997.33501   -1574.7943    798.40684   -1352.4601            0            0            0            0            0   -576.07269   -28.054667 
 1020000    307.26541    325.93554    873.12641    29711.561   -1362.7678    365.44402   -997.32373   -1583.0035    796.42352   -1362.7678            0            0            0            0            0   -576.18777   -28.294139 
 1025000     280.5068    153.41928    872.78874    29723.056   -1359.4398    333.61886    -1025.821   -1586.2155    802.89059   -1359.4398            0            0            0            0            0   -576.11496   -28.283196 
 1030000    284.59633    99.011457    859.07518     30197.53   -1334.2612    338.48271   -995.77846   -1556.5307    798.49602   -1334.2612            0            0            0            0            0   -576.22653   -27.838801 
 1035000    303.28206   -172.60739    859.45713     30184.11   -1341.5635    360.70645     -980.857   -1558.2566    792.89644   -1341.5635            0            0            0            0            0   -576.20327   -27.851178 
 1040000    303.15513    51.217156    864.79528    29997.792   -1358.8551    360.55549   -998.29956   -1577.3263    794.54387   -1358.8551            0            0            0            0            0   -576.07266   -28.024164 
 1045000    300.08901   -265.67239    859.26769    30190.765   -1347.7592    356.90883   -990.85036   -1575.6476    803.95979   -1347.7592            0            0            0            0            0   -576.07137   -27.845039 
 1050000    316.53189      955.198    870.12055    29814.201   -1341.4982    376.46505   -965.03316   -1569.5967    803.86091   -1341.4982            0            0            0            0            0   -575.76241   -28.196732 
 1055000    294.14706   -490.06735    852.90185    30416.101   -1335.6629     349.8418    -985.8211     -1558.67    799.20016   -1335.6629            0            0            0            0            0   -576.19306   -27.638751 
 1060000    298.38657    143.65879    876.32758    29603.026   -1384.3269    354.88404   -1029.4429   -1599.6965    791.55311   -1384.3269            0            0            0            0            0   -576.18355   -28.397875 
 1065000    325.07895   -357.36013    864.29861     30015.03   -1370.7183    386.63044    -984.0879    -1594.108    799.52294   -1370.7183            0            0            0            0            0    -576.1333   -28.008069 
 1070000    294.80909    -322.4318    857.28629    30260.543   -1355.0099    350.62918   -1004.3807   -1578.8993    800.10394   -1355.0099            0            0            0            0            0   -576.21457   -27.780831 
 1075000    291.94928    301.77149    879.36128    29500.899   -1384.7357    347.22789   -1037.5078   -1605.3668    796.95073   -1384.7357            0            0            0            0            0   -576.31963   -28.496183 
 1080000    309.59493    124.98789    864.93603     29992.91   -1344.9542    368.21463   -976.73957   -1574.9726     806.1548   -1344.9542            0            0            0            0            0   -576.13638   -28.028725 
 1085000    305.29235    301.53087    884.04468    29344.613    -1391.838    363.09739   -1028.7406    -1611.053    795.22205    -1391.838            0            0            0            0            0   -576.00713   -28.647951 
 1090000    304.31061    -622.2633    840.44539    30866.906   -1310.6933    361.92976   -948.76352   -1538.7384    804.09719   -1310.6933            0            0            0            0            0   -576.05206   -27.235092 
 1095000    294.41132   -181.90903    856.92714    30273.226   -1329.2799    350.15611   -979.12383   -1559.3456     806.1762   -1329.2799            0            0            0            0            0    -576.1105   -27.769193 
 1100000    296.80676    -71.20795     852.7584    30421.217   -1324.2876    353.00511   -971.28253   -1545.7658    797.63336   -1324.2876            0            0            0            0            0    -576.1552   -27.634102 
 1105000    292.39894    446.92873    863.80471    30032.192   -1339.3155    347.76269   -991.55286    -1556.906    793.93171   -1339.3155            0            0            0            0            0   -576.34122   -27.992064 
 1110000    292.80077    163.40487    865.37242    29977.785   -1346.4476    348.24061     -998.207   -1573.3911    803.12197   -1346.4476            0            0            0            0            0   -576.17847   -28.042867 
 1115000    274.58012    56.892791     857.4344    30255.316   -1326.3204       326.57   -999.75039    -1553.204    802.94917   -1326.3204            0            0            0            0            0   -576.06555   -27.785631 
 1120000    309.56898    72.136651    851.76742    30456.611   -1320.7429    368.18376   -952.55914   -1534.1629    789.61076   -1320.7429            0            0            0            0            0   -576.19079   -27.601989 
 1125000     286.8641   -159.13069     836.0521    31029.105   -1287.4774    341.17986   -946.29751   -1512.1009    800.69438   -1287.4774            0            0            0            0            0   -576.07089   -27.092725 
 1130000    292.48699   -435.33668    874.61273    29661.069   -1384.4085    347.86741   -1036.5411   -1609.9008    801.62946   -1384.4085            0            0            0            0            0   -576.13708   -28.342304 
 1135000    306.19751    56.431674    850.64348    30496.853   -1314.6692    364.17393    -950.4953   -1537.2234    798.66503   -1314.6692            0            0            0            0            0   -576.11081   -27.565567 
 1140000    267.60838   -326.84581    850.74299    30493.285   -1325.0763    318.27821   -1006.7981   -1550.5728    801.76305   -1325.0763            0            0            0            0            0   -576.26655   -27.568792 
 1145000    295.42275    107.09652    852.97674     30413.43   -1324.8971    351.35904   -973.53807   -1548.2213    799.51312   -1324.8971            0            0            0            0            0   -576.18895   -27.641178 
 1150000    274.70122    179.05525     854.6051    30355.481    -1316.894    326.71403   -990.17992   -1539.6712    798.96948    -1316.894            0            0            0            0            0   -576.19223   -27.693946 
 1155000    284.08079    72.752411    875.51557    29630.482   -1365.9618    337.86956   -1028.0922   -1592.5204    802.33185   -1365.9618            0            0            0            0            0   -575.77325   -28.371561 
 1160000    297.07412   -305.24786    846.99992    30628.042   -1318.0765    353.32308   -964.75337   -1544.6021     802.5728   -1318.0765            0            0            0            0            0   -576.04717   -27.447495 
 1165000    282.00856    212.63065     866.9364    29923.704   -1344.3756    335.40496   -1008.9707   -1571.2329    802.97091   -1344.3756            0            0            0            0            0   -576.11365   -28.093548 
 1170000    283.22632    185.29732    866.44616    29940.635   -1351.6481     336.8533   -1014.7948   -1574.2774    798.98593   -1351.6481            0            0            0            0            0   -576.35661   -28.077662 
 1175000    293.65717    303.62659     863.3241     30048.91   -1348.8185    349.25916   -999.55933   -1572.1547    799.42953   -1348.8185            0            0            0            0            0   -576.09335    -27.97649 
 1180000    281.11544   -242.30099    841.90931    30813.234   -1301.3624    334.34274   -967.01964   -1523.9048    798.81465   -1301.3624            0            0            0            0            0   -576.27227   -27.282531 
 1185000    318.20405   -650.83503    865.96126    29957.401   -1377.6614    378.45383   -999.20759   -1600.5653    799.25024   -1377.6614            0            0            0            0            0   -576.34641   -28.061948 
 1190000    301.24501   -211.17715    877.25715    29571.658   -1394.7563     358.2837   -1036.4726   -1617.8008    799.12608   -1394.7563            0            0            0            0            0   -576.08151   -28.427998 
 1195000    291.91639    260.64217    868.80381    29859.386    -1348.479    347.18878   -1001.2902   -1579.8516    807.56985    -1348.479            0            0            0            0            0    -576.1972   -28.154063 
 1200000    301.76405   -139.86627    861.75931    30103.474   -1336.1778    358.90103   -977.27681   -1572.8679    812.83199   -1336.1778            0            0            0            0            0   -576.14192   -27.925782 
 1205000    307.15012    17.855408     867.1808    29915.271   -1351.6905    365.30691   -986.38356   -1582.2965    806.79526   -1351.6905            0            0            0            0            0   -576.18926   -28.101468 
 1210000    287.01964    307.53125    854.86834    30346.133   -1309.0518    341.36486   -967.68696   -1530.5038    797.42513   -1309.0518            0            0            0            0            0   -575.97317   -27.702476 
 1215000    309.50791    185.66114     868.5958    29866.537    -1354.107    368.11113   -985.99591   -1581.5308    803.64591    -1354.107            0            0            0            0            0   -576.22215   -28.147322 
 1220000    313.45064    -152.1272    853.98789     30377.42   -1332.4764    372.80039   -959.67603    -1554.616      798.243   -1332.4764            0            0            0            0            0   -576.10342   -27.673945 
 1225000    295.57601   -15.801779    859.18358     30193.72   -1350.8668    351.54132   -999.32552   -1573.6429    799.17853   -1350.8668            0            0            0            0            0   -576.40243   -27.842314 
 1230000    283.52045    56.179704    862.58823    30074.545   -1348.9873    337.20312   -1011.7841   -1572.0857    799.42736   -1348.9873            0            0            0            0            0    -576.3289   -27.952643 
 1235000    306.03417   -709.35264    841.40679    30831.637   -1313.6205    363.97967   -949.64087    -1540.741    803.45951   -1313.6205            0            0            0            0            0   -576.33908   -27.266247 
 1240000    299.04318   -60.969942    860.45064    30149.258   -1342.6755    355.66497   -987.01053   -1567.6729    800.98844   -1342.6755            0            0            0            0            0   -575.99106   -27.883373 
 1245000    307.79559   -174.85535    853.95181    30378.703   -1332.6011     366.0746   -966.52645   -1556.3461    799.78575   -1332.6011            0            0            0            0            0   -576.04068   -27.672775 
 1250000    303.83814   -293.47143    866.83887    29927.071    -1362.609    361.36783   -1001.2412   -1589.7469    803.25522    -1362.609            0            0            0            0            0   -576.11734   -28.090387 
 1255000    311.27664    883.32062    880.24124    29471.408    -1365.244    370.21476   -995.02923   -1588.8916     799.6756    -1365.244            0            0            0            0            0   -576.02802   -28.524699 
 1260000    283.85169   -1.2058836    859.37232    30187.089   -1342.5401    337.59708    -1004.943   -1566.9438    800.60718   -1342.5401            0            0            0            0            0   -576.20341    -27.84843 
 1265000    296.12693    204.32895    876.49136    29597.495   -1377.1261    352.19655   -1024.9295   -1599.6478     798.8107   -1377.1261            0            0            0            0            0   -576.28899   -28.403182 
 1270000    299.04277    183.82404    867.01531    29920.981   -1353.1815    355.66449   -997.51698   -1575.9065    799.01224   -1353.1815            0            0            0            0            0   -576.28725   -28.096105 
 1275000    294.64225   -371.35885    863.48278    30043.389   -1365.1701    350.43075   -1014.7393   -1588.0761    798.98373   -1365.1701            0            0            0            0            0   -576.07769   -27.981632 
 1280000     293.9972   -115.16207    858.92856    30202.685   -1339.8604    349.66358   -990.19684   -1572.4061    808.59546   -1339.8604            0            0            0            0            0   -576.04975    -27.83405 
 1285000    284.32284    86.200315    867.89599    29890.619   -1357.5259    338.15743   -1019.3685    -1583.863    802.57721   -1357.5259            0            0            0            0            0   -576.24012   -28.124644 
 1290000    307.74815   -580.18633    875.77017    29621.868    -1403.037    366.01817   -1037.0189     -1626.29    799.42709    -1403.037            0            0            0            0            0   -576.17408   -28.379811 
 1295000    291.92604   -47.314286    861.71707    30104.949   -1356.1424    347.20025   -1008.9421   -1575.0612     795.1272   -1356.1424            0            0            0            0            0   -576.20841   -27.924413 
 1300000    292.45291    422.80094    891.10162    29112.222   -1414.2572    347.82688   -1066.4303   -1632.8979    794.60774   -1414.2572            0            0            0            0            0   -575.96704   -28.876635 
 1305000    305.02725    298.51203    866.35519    29943.779   -1350.8239    362.78209   -988.04178   -1569.7917    795.28378   -1350.8239            0            0            0            0            0   -576.31594   -28.074714 
 1310000    309.08129    123.95259    869.11471    29848.705   -1365.4347    367.60373     -997.831   -1583.8085    794.52237   -1365.4347            0            0            0            0            0   -576.14865   -28.164137 
 1315000    291.79128    -467.8653    860.01231    30164.625   -1357.2776    347.03998   -1010.2376   -1577.1334    795.77192   -1357.2776            0            0            0            0            0   -575.91613   -27.869169 
 1320000    295.69698     -27.5571    860.44363    30149.504   -1361.3337     351.6852   -1009.6485   -1575.1342     789.7657   -1361.3337            0            0            0            0            0   -575.96524   -27.883146 
 1325000    294.11705    263.04277    872.62253    29728.717   -1367.5685    349.80611   -1017.7624   -1588.4207     797.1173   -1367.5685            0            0            0            0            0   -576.26507    -28.27781 
 1330000    290.20586    111.44336    857.37318    30257.476   -1326.0039    345.15437    -980.8495   -1547.9282    798.08955   -1326.0039            0            0            0            0            0   -576.16522   -27.783647 
 1335000    305.37078   -190.05824    846.00486    30664.066   -1312.5626    363.19067   -949.37191   -1538.1128    801.53487   -1312.5626            0            0            0            0            0   -575.98463    -27.41525 
 1340000    304.55099    116.27135    870.72886    29793.372   -1364.4059    362.21565   -1002.1903   -1589.6468    801.51458   -1364.4059            0            0            0            0            0   -576.27374   -28.216445 
 1345000    300.74102   -262.11006    864.29465    30015.167   -1371.7484    357.68428   -1014.0641    -1587.556    791.97975   -1371.7484            0            0            0            0            0   -576.17219   -28.007941 
 1350000    299.62769   -279.05389    859.28537    30190.143   -1344.0226    356.36016    -987.6624   -1568.2451    800.22568   -1344.0226            0            0            0            0            0   -576.00319   -27.845612 
 1355000    305.27508   -4.7606103    861.06787    30127.647    -1335.437    363.07684   -972.36016   -1557.0933     797.7328    -1335.437            0            0            0            0            0    -576.0765   -27.903375 
 1360000    307.39943    480.06818    866.00794    29955.786   -1339.3629    365.60342   -973.75947   -1567.1174    803.90681   -1339.3629            0            0            0            0            0    -576.1523   -28.063461 
 1365000    289.95111    82.935136    860.18378    30158.612   -1338.6473    344.85138   -993.79594   -1559.9338     797.3813   -1338.6473            0            0            0            0            0    -576.0948   -27.874726 
 1370000    259.44252   -120.12206    855.05693     30339.44   -1336.4188     308.5662   -1027.8526   -1558.0879     797.8953   -1336.4188            0            0            0            0            0   -576.22616   -27.708588 
 1375000    306.96435   -403.82698    849.78649    30527.608   -1343.0697    365.08597   -977.98375   -1557.1653    790.33194   -1343.0697            0            0            0            0            0    -576.2364   -27.537796 
 1380000    289.94591   -209.59745    858.91505     30203.16   -1361.9321     344.8452   -1017.0869   -1572.6241    787.08347   -1361.9321            0            0            0            0            0   -576.39149   -27.833612 
 1385000    306.88976    503.73788    878.77529    29520.571   -1373.7726    364.99725   -1008.7754   -1593.5255    796.09524   -1373.7726            0            0            0            0            0   -576.34238   -28.477194 
 1390000    274.00305     74.54551    872.52274    29732.118   -1369.1509    325.88367   -1043.2672    -1594.815    801.79573   -1369.1509            0            0            0            0            0   -576.13167   -28.274576 
 1395000    297.33963   -108.59604    861.37028     30117.07   -1346.2568    353.63887   -992.61789   -1568.3339    798.19923   -1346.2568            0            0            0            0            0   -576.12205   -27.913175 
 1400000    306.59845    159.28285    861.13525    30125.289   -1344.2213    364.65078   -979.57052    -1569.134    801.04181   -1344.2213            0            0            0            0            0   -576.12909   -27.905559 
 1405000    286.70141     15.64678    870.97938    29784.802   -1366.0916    340.98638   -1025.1052   -1595.7284    805.60843   -1366.0916            0            0            0            0            0   -575.97161   -28.224563 
 1410000    301.78426     407.3609    871.58673    29764.047   -1354.2376    358.92506   -995.31253   -1574.9723    796.90468   -1354.2376            0            0            0            0            0      -576.17   -28.244245 
 1415000    309.15938     56.71581    872.66449    29727.288   -1370.6801    367.69661   -1002.9834   -1588.8922    794.07645   -1370.6801            0            0            0            0            0   -575.86428    -28.27917 
 1420000    294.79987   -348.79931    856.80663    30277.483   -1341.5971    350.61822   -990.97885   -1559.5298    793.87927   -1341.5971            0            0            0            0            0   -575.94651   -27.765287 
 1425000    291.93695    428.62683    858.35005    30223.041   -1318.6997    347.21323   -971.48649   -1549.7813    807.19189   -1318.6997            0            0            0            0            0   -576.11031   -27.815303 
 1430000    303.86537   -392.92872    861.51721    30111.933   -1357.6964    361.40021   -996.29619   -1585.5428    804.10205   -1357.6964            0            0            0            0            0   -576.25569   -27.917936 
 1435000     280.3284    580.15359    864.50186    30007.973   -1332.1163    333.40668    -998.7096   -1550.6776    794.79097   -1332.1163            0            0            0            0            0   -576.22961   -28.014655 
 1440000    288.52868   -35.373848    858.73384    30209.533   -1345.7599    343.15962   -1002.6003   -1572.7359     803.1334   -1345.7599            0            0            0            0            0   -576.15744    -27.82774 
 1445000    305.04218    586.77065    866.74901    29930.174   -1344.8282    362.79985   -982.02831   -1561.0799     792.6391   -1344.8282            0            0            0            0            0    -576.3874   -28.087476 
 1450000    291.70436    186.36449    859.49579    30182.752   -1336.3719     346.9366   -989.43526    -1562.398    802.20064   -1336.3719            0            0            0            0            0   -576.17447   -27.852431 
 1455000    287.31679    565.91881    867.23107    29913.537   -1336.3555    341.71827   -994.63727   -1562.3133    801.89121   -1336.3555            0            0            0            0            0   -575.93343   -28.103097 
 1460000      296.536   -141.89849    859.03621      30198.9   -1353.5749    352.68308   -1000.8918   -1577.1083    799.63561   -1353.5749            0            0            0            0            0   -576.10221   -27.837538 
 1465000    306.46639    334.94007    862.35432    30082.703   -1335.0976    364.49372   -970.60384   -1557.4771    798.58143   -1335.0976            0            0            0            0            0   -576.20184   -27.945063 
 1470000    296.20449   -542.12124    863.90662    30028.649   -1373.8435     352.2888   -1021.5547   -1598.4701    800.68021   -1373.8435            0            0            0            0            0   -576.05367   -27.995367 
 1475000    274.48145    281.08188    862.27815     30085.36   -1338.6022    326.45265   -1012.1495   -1561.4085    798.70243   -1338.6022            0            0            0            0            0   -575.89608   -27.942595 
 1480000    300.34087    445.66345    871.51318    29766.559   -1355.8748    357.20838   -998.66647   -1579.1737    799.68631   -1355.8748            0            0            0            0            0   -576.38749   -28.241861 
 1485000    284.22113    433.89992    867.55287    29902.441   -1339.9386    338.03647   -1001.9021   -1561.4514    797.81194   -1339.9386            0            0            0            0            0   -576.29918   -28.113525 
 1490000    287.09371   -306.65091    855.31534    30330.274   -1335.6039    341.45296   -994.15097   -1559.7154    799.96013   -1335.6039            0            0            0            0            0   -575.84861   -27.716961 
 1495000    273.68307   -182.69376    860.59044    30144.361    -1350.559     325.5031    -1025.056    -1571.749    797.32406    -1350.559            0            0            0            0            0   -576.13415   -27.887904 
 1500000    297.89318    222.49216    873.32342    29704.859   -1369.1322    354.29723    -1014.835   -1586.5775    793.58113   -1369.1322            0            0            0            0            0   -576.13591   -28.300523 
 1505000    290.18903   -229.84391     860.1973    30158.138   -1355.6934    345.13435   -1010.5591   -1577.0433    797.41384   -1355.6934            0            0            0            0            0   -576.06403   -27.875164 
 1510000    277.10853   -229.76409    858.48286    30218.365   -1355.4854    329.57715   -1025.9082   -1571.5665    792.34895   -1355.4854            0            0            0            0            0   -576.26782   -27.819606 
 1515000    304.25438    -97.16665    850.55783    30499.923   -1331.0336    361.86288   -969.17072   -1550.7971    795.53482   -1331.0336            0            0            0            0            0   -575.77127   -27.562792 
 1520000    280.31145   -509.00965    847.70774    30602.468   -1326.0777    333.38652   -992.69114   -1549.7136    799.79372   -1326.0777            0            0            0            0            0   -576.15778   -27.470433 
 1525000    315.35421    430.13658    864.09031    30022.266   -1334.8003    375.06438   -959.73587   -1556.6606    797.96226   -1334.8003            0            0            0            0            0   -576.10193   -28.001319 
 1530000    309.60929    84.505551    858.22518    30227.438   -1326.3757    368.23171   -958.14396    -1556.277     805.6725   -1326.3757            0            0            0            0            0   -575.77114   -27.811256 
 1535000    312.19736    57.770972    850.40796    30505.299   -1324.1495    371.30981   -952.83969   -1538.4412    790.36911   -1324.1495            0            0            0            0            0   -576.07746   -27.557935 
 1540000    288.86912   -44.634188     871.5562     29765.09    -1362.956    343.56452   -1019.3915   -1590.7487    803.81642    -1362.956            0            0            0            0            0   -576.02372   -28.243255 
 1545000    301.97293    40.124739    870.34796     29806.41   -1357.5648    359.14945   -998.41532   -1581.2669    799.75539   -1357.5648            0            0            0            0            0   -576.05323   -28.204102 
 1550000    294.53427    360.19903    881.96859    29413.688   -1400.6578    350.30234   -1050.3555   -1615.1766    790.51448   -1400.6578            0            0            0            0            0   -575.99565   -28.580675 
 1555000    302.08977   -190.98092    858.61761    30213.623   -1346.4945    359.28842   -987.20604   -1567.0509    796.83852   -1346.4945            0            0            0            0            0   -576.28213   -27.823973 
 1560000    288.26577    638.37511    893.60472    29030.675   -1410.3829    342.84693   -1067.5359   -1626.2588     791.8916   -1410.3829            0            0            0            0            0   -576.01571    -28.95775 
 1565000    303.29464   -69.143724    862.16639     30089.26    -1346.445    360.72142   -985.72354   -1571.0609     800.8218    -1346.445            0            0            0            0            0   -576.20587   -27.938974 
 1570000    302.07337    187.82368    865.92125    29958.785   -1358.4448    359.26891   -999.17587   -1576.3823     794.0074   -1358.4448            0            0            0            0            0   -576.06984   -28.060652 
 1575000    294.34565   -124.63696    871.49507    29767.178   -1375.2711      350.078   -1025.1931   -1594.7568     795.7186   -1375.2711            0            0            0            0            0   -576.23291   -28.241274 
 1580000    305.39537    212.72569     871.7991    29756.797   -1364.8593    363.21991   -1001.6394   -1584.4705    795.93459   -1364.8593            0            0            0            0            0   -576.32344   -28.251126 
 1585000    294.94327   -244.77384     853.4861     30395.28   -1323.5247    350.78877   -972.73593    -1547.146    799.77845   -1323.5247            0            0            0            0            0   -576.15711   -27.657684 
 1590000    286.88658   -36.500562    863.86514    30030.091   -1342.1271     341.2066   -1000.9205   -1569.3837    803.42922   -1342.1271            0            0            0            0            0   -576.17267   -27.994022 
 1595000    289.87835   -288.43247    860.14664    30159.914    -1349.812    344.76484   -1005.0471   -1569.4113    795.61541    -1349.812            0            0            0            0            0   -576.01611   -27.873522 
[...]
 4600000    277.04436    -411.4299    877.88089    29550.647   -1414.7512    329.50083   -1085.2503   -1637.8377    799.30746   -1414.7512            0            0            0            0            0   -576.22093    -28.44821 
 4605000    287.01107    212.16025    874.07556    29679.298   -1371.9968    341.35466   -1030.6421   -1592.4108    796.65868   -1371.9968            0            0            0            0            0   -576.24463   -28.324897 
 4610000    306.94911    13.079784    864.10891    30021.619   -1349.2063    365.06783   -984.13843   -1572.1316    799.24808   -1349.2063            0            0            0            0            0   -576.32276   -28.001922 
 4615000     299.3001   -179.08929    883.85212    29351.006   -1416.5598    355.97054   -1060.5892    -1638.339    797.87145   -1416.5598            0            0            0            0            0   -576.09228   -28.641711 
 4620000      306.537    773.26272    878.58736    29526.886   -1359.1332     364.5777   -994.55553   -1579.0726    796.11866   -1359.1332            0            0            0            0            0   -576.17931   -28.471104 
 4625000    297.28827    331.08841     860.1558    30159.593   -1331.6845    353.57778   -978.10677   -1554.3069    798.80718   -1331.6845            0            0            0            0            0    -576.1848   -27.873819 
 4630000    301.99526    474.34247    857.78826    30242.835   -1316.5886    359.17601   -957.41258   -1542.6874    802.19116   -1316.5886            0            0            0            0            0   -576.09234   -27.797098 
 4635000    321.92325    203.32039    867.91084    29890.108     -1349.65    382.87723   -966.77276   -1575.8441    802.12581     -1349.65            0            0            0            0            0   -575.93172   -28.125125 
 4640000    303.32774     13.43833    848.98273    30556.509   -1297.4786    360.76079   -936.71778   -1530.4022    809.20226   -1297.4786            0            0            0            0            0    -576.2786    -27.51175 
 4645000    280.76675    -454.9191    850.75169    30492.973   -1330.5475    333.92803   -996.61944   -1550.8197    796.57864   -1330.5475            0            0            0            0            0   -576.30641   -27.569074 
 4650000    283.75463    122.13436    865.10413    29987.082   -1339.8247    337.48164    -1002.343   -1570.0369    806.29247   -1339.8247            0            0            0            0            0   -576.08028   -28.034172 
 4655000    283.96601    583.56191    863.31564    30049.205    -1340.192    337.73305   -1002.4589   -1553.3364    789.24627    -1340.192            0            0            0            0            0   -576.10186   -27.976216 
 4660000    284.13806   -149.72686    858.84444    30205.643   -1353.0648    337.93768   -1015.1272   -1570.5825    793.55895   -1353.0648            0            0            0            0            0   -576.04125   -27.831324 
 4665000    302.48066    62.033155    864.31981    30014.294   -1354.7278    359.75332   -994.97449   -1576.5155    797.87554   -1354.7278            0            0            0            0            0   -576.08782   -28.008756 
 4670000    267.91324   -69.298728    864.91064     29993.79   -1368.4549    318.64079   -1049.8141   -1591.0039    798.85639   -1368.4549            0            0            0            0            0    -576.3074   -28.027902 
 4675000    301.84365    477.36322     881.3697    29433.674   -1390.6036    358.99569   -1031.6079   -1604.5808    790.33773   -1390.6036            0            0            0            0            0    -576.3605   -28.561267 
 4680000    298.76397   -274.67634     850.1229    30515.527   -1322.6876     355.3329   -967.35467   -1553.3417    806.81425   -1322.6876            0            0            0            0            0   -576.16009   -27.548698 
 4685000    308.77105    31.780723    872.78383    29723.223   -1376.7553    367.23475   -1009.5205   -1599.9144    799.34515   -1376.7553            0            0            0            0            0   -576.18601   -28.283037 
 4690000    289.56721   -325.19041    872.22314     29742.33   -1392.2128     344.3948    -1047.818   -1605.7313    789.71368   -1392.2128            0            0            0            0            0   -576.19515   -28.264868 
 4695000    299.46274   -265.89689    867.63375    29899.654   -1359.0681    356.16398   -1002.9041   -1587.8613    805.11299   -1359.0681            0            0            0            0            0   -576.31981   -28.116146 
 4700000    296.36801   -251.99922    847.42897    30612.535   -1314.2727    352.48328   -961.78945   -1542.6929    804.50479   -1314.2727            0            0            0            0            0   -576.08466   -27.461399 
 4705000    284.72587   -155.49552    864.62824    30003.587   -1366.5053    338.63678   -1027.8685   -1587.7975    797.43766   -1366.5053            0            0            0            0            0   -576.14548   -28.018751 
 4710000      313.262    187.12883     863.0279    30059.224   -1348.5876    372.57603    -976.0116   -1567.5495    794.90579   -1348.5876            0            0            0            0            0   -575.94391   -27.966891 
 4715000    282.24706   -221.29517    850.75013    30493.029   -1330.6146    335.68862   -994.92594   -1543.5992    789.10341   -1330.6146            0            0            0            0            0   -576.11882   -27.569023 
 4720000    303.30351   0.91854126    868.15131    29881.829   -1366.9704    360.73197   -1006.2384   -1585.7107    795.07427   -1366.9704            0            0            0            0            0   -576.33392   -28.132918 
 4725000    323.80962   -300.18858    855.03413    30340.249    -1347.192    385.12077   -962.07126   -1564.6209    793.60371    -1347.192            0            0            0            0            0   -576.17488   -27.707849 
 4730000    300.07231    -362.3684    863.08756    30057.146   -1363.8453    356.88896   -1006.9564    -1583.835    796.14478   -1363.8453            0            0            0            0            0   -576.15506   -27.968825 
 4735000    308.74519    539.45275    875.22994    29640.152    -1365.054      367.204   -997.84996   -1584.3224    795.54471    -1365.054            0            0            0            0            0    -576.2763   -28.362305 
 4740000    300.26469    40.208398    859.09301    30196.904   -1339.4478    357.11776   -982.33001   -1560.2072    796.79621   -1339.4478            0            0            0            0            0   -576.03682   -27.839379 
 4745000    291.56804   -488.45863    866.45147    29940.452   -1375.5319    346.77447   -1028.7574   -1597.5204     798.1806   -1375.5319            0            0            0            0            0   -576.19212   -28.077834 
 4750000    316.92585   -108.95478    878.89693    29516.486   -1397.0294     376.9336   -1020.0958   -1616.9201    796.10819   -1397.0294            0            0            0            0            0   -576.21753   -28.481136 
 4755000    309.56339   -414.27293     856.5668    30285.961   -1352.5402    368.17712   -984.36309   -1569.2274    792.93985   -1352.5402            0            0            0            0            0   -576.25267   -27.757516 
 4760000    313.54394   -93.930614    855.93456    30308.332   -1334.9229    372.91135   -962.01159   -1559.6677    800.74075   -1334.9229            0            0            0            0            0   -575.99603   -27.737027 
 4765000    294.80147    439.96792    868.40402    29873.133   -1352.8341    350.62013    -1002.214    -1573.626     797.0156   -1352.8341            0            0            0            0            0   -576.22375   -28.141107 
 4770000     296.5346   -135.67842    887.28053    29237.595    -1425.714    352.68142   -1073.0326   -1649.9811     800.4638    -1425.714            0            0            0            0            0   -576.19671   -28.752811 
 4775000    299.26095    624.65953      871.607    29763.355   -1348.6368    355.92398   -992.71281   -1574.7675    802.32935   -1348.6368            0            0            0            0            0   -576.19867   -28.244901 
 4780000    270.41785    263.58377    869.78365    29825.749   -1359.7217    321.61963   -1038.1021   -1584.4213    800.78279   -1359.7217            0            0            0            0            0   -576.08323   -28.185815 
 4785000    295.91239    227.49311    878.01075    29546.277   -1383.3619    351.94139   -1031.4205   -1601.2378     793.9359   -1383.3619            0            0            0            0            0      -576.06   -28.452419 
 4790000    281.58655   -33.907958    865.57411      29970.8   -1348.4293    334.90305   -1013.5263   -1579.3706    807.26899   -1348.4293            0            0            0            0            0   -576.32778   -28.049402 
 4795000    300.81429   -1.8641351    849.22833    30547.672   -1307.6108    357.77143   -949.83938   -1532.6438    801.33073   -1307.6108            0            0            0            0            0   -576.29769   -27.519708 
 4800000    311.87053   -281.84481    845.51111    30681.972   -1302.9339    370.92109   -932.01284   -1528.7591     802.0153   -1302.9339            0            0            0            0            0    -576.1901    -27.39925 
 4805000    293.71815     2.607635    845.87925    30668.619   -1286.4025    349.33169   -937.07085   -1513.4899    803.34264   -1286.4025            0            0            0            0            0   -576.25525    -27.41118 
 4810000    282.65566    29.881521    875.69826    29624.301   -1375.4734    336.17459   -1039.2988   -1597.2135    797.65454   -1375.4734            0            0            0            0            0   -575.91437   -28.377481 
 4815000    271.91914    -456.6133     846.9135    30631.167   -1320.4785    323.40518   -997.07337   -1544.0801    799.67209   -1320.4785            0            0            0            0            0   -576.07051   -27.444695 
 4820000    296.96261    454.32955    871.60291    29763.495   -1361.4768    353.19047   -1008.2863   -1584.3827    798.79723   -1361.4768            0            0            0            0            0   -575.89128   -28.244769 
 4825000    276.37304    97.180912    869.27139    29843.325   -1360.1544     328.7024    -1031.452    -1583.907    799.42452   -1360.1544            0            0            0            0            0   -575.67182   -28.169215 
 4830000    294.35601    86.089778    864.47649    30008.854    -1351.029    350.09032   -1000.9387   -1574.8268    799.94193    -1351.029            0            0            0            0            0   -576.14415   -28.013833 
 4835000    281.41087    234.35206    866.27009    29946.721   -1357.3344    334.69411   -1022.6403   -1569.8999    788.94094   -1357.3344            0            0            0            0            0   -576.37543   -28.071956 
 4840000     258.9503   -272.23419    862.02721    30094.118   -1361.1162    307.98078   -1053.1355   -1578.1394     793.3316   -1361.1162            0            0            0            0            0   -576.30839   -27.934463 
 4845000    272.17547     401.1039     871.0193    29783.437   -1356.9849    323.71005   -1033.2749   -1577.8932    797.11186   -1356.9849            0            0            0            0            0   -576.20361   -28.225857 
 4850000    297.77448    233.24288    865.31138      29979.9   -1348.5132    354.15605   -994.35715   -1568.4107    796.05334   -1348.5132            0            0            0            0            0   -576.15581   -28.040888 
 4855000    303.62107   -118.33782    859.62936    30178.063   -1353.0765    361.10966   -991.96684   -1571.9658      795.115   -1353.0765            0            0            0            0            0   -576.22571   -27.856759 
 4860000    305.37557   -45.489904    875.66429     29625.45   -1388.0156    363.19636   -1024.8192   -1610.3671    798.36202   -1388.0156            0            0            0            0            0   -576.01056    -28.37638 
 4865000    296.97561    -365.0525    871.08019    29781.355   -1374.5348    353.20592   -1021.3289   -1609.4128    810.70431   -1374.5348            0            0            0            0            0   -575.82633    -28.22783 
 4870000     283.2217    54.935726    871.51917    29766.354   -1364.5962    336.84781   -1027.7484   -1583.8922    795.44381   -1364.5962            0            0            0            0            0   -576.14783   -28.242055 
 4875000    301.53105   -137.53112     863.9063     30028.66   -1366.0528    358.62391   -1007.4288   -1582.5887    792.64641   -1366.0528            0            0            0            0            0   -576.11047   -27.995356 
 4880000    284.60735   -342.74458    846.11846    30659.949   -1316.3299    338.49582   -977.83412   -1542.6046     802.3252   -1316.3299            0            0            0            0            0   -576.05058   -27.418931 
 4885000      331.026   -59.156444    880.98273    29446.603   -1399.8918    393.70353   -1006.1883   -1621.2442    797.37201   -1399.8918            0            0            0            0            0   -576.01958   -28.548727 
 4890000     288.0498   -58.907924    890.18076    29142.338   -1436.6213    342.59008   -1094.0312   -1654.8534    794.32674   -1436.6213            0            0            0            0            0   -576.09468   -28.846795 
 4895000    297.74286    121.27039    867.87118    29891.474   -1359.9184    354.11845   -1005.7999   -1579.2507    795.58313   -1359.9184            0            0            0            0            0   -576.25086    -28.12384 
 4900000    304.13633   -280.71922    866.26668    29946.839   -1372.8902    361.72248   -1011.1677   -1592.9959    796.08822   -1372.8902            0            0            0            0            0   -575.98253   -28.071846 
 4905000    301.51505   -88.367486    850.98166    30484.733   -1323.2156    358.60488   -964.61071   -1547.3875    800.58734   -1323.2156            0            0            0            0            0   -576.41541   -27.576526 
 4910000    293.01069    292.65454     868.7217    29862.209   -1347.7031    348.49028   -999.21284   -1575.7579    804.32071   -1347.7031            0            0            0            0            0   -576.26591   -28.151402 
 4915000    273.41027   -149.93411    877.66245    29558.002   -1393.4634    325.17865   -1068.2848   -1615.3452    798.08052   -1393.4634            0            0            0            0            0   -576.19876   -28.441132 
 4920000    278.40135   -240.40314    863.25208    30051.418   -1361.1274    331.11475   -1030.0127   -1584.3611    799.44647   -1361.1274            0            0            0            0            0   -576.21279   -27.974156 
 4925000    310.35949    529.01922      879.401    29499.567   -1373.6409    369.12395    -1004.517   -1594.1161    796.48875   -1373.6409            0            0            0            0            0   -576.01358    -28.49747 
 4930000    278.94608    42.118621    861.34442    30117.974   -1341.3825    331.76263   -1009.6199   -1564.8093    799.82236   -1341.3825            0            0            0            0            0   -576.39563   -27.912337 
 4935000    276.84664   -549.09719    859.79123    30172.381   -1355.4128    329.26567   -1026.1471   -1580.5188    801.04687   -1355.4128            0            0            0            0            0   -575.94086   -27.862005 
 4940000    272.18586    89.490507    857.14009    30265.704   -1338.2687    323.72241   -1014.5463     -1554.31    791.95484   -1338.2687            0            0            0            0            0   -575.91358   -27.776093 
 4945000    296.85927    5.0306736     856.3348    30294.166   -1345.5598    353.06756   -992.49223   -1566.1169    796.75526   -1345.5598            0            0            0            0            0   -576.19819   -27.749998 
 4950000    290.19599   -92.617453    854.16533    30371.109   -1329.0609    345.14263    -983.9183   -1557.9387    805.05213   -1329.0609            0            0            0            0            0   -576.17432   -27.679695 
 4955000    304.97595   -50.892023    867.18072    29915.274    -1376.218    362.72108    -1013.497   -1591.0286    790.72508    -1376.218            0            0            0            0            0    -575.9145   -28.101466 
 4960000    308.64284    544.25181    876.95797    29581.747   -1365.2847    367.08227   -998.20244   -1589.6648    800.35098   -1365.2847            0            0            0            0            0   -575.97092   -28.418302 
 4965000    278.59057    562.52924    869.70839     29828.33    -1350.255     331.3398   -1018.9152   -1571.2677    797.45388    -1350.255            0            0            0            0            0   -576.44121   -28.183376 
 4970000    294.48569    480.89589    867.84043    29892.533   -1351.4355    350.24456   -1001.1909   -1565.4523    790.14483   -1351.4355            0            0            0            0            0   -576.12799   -28.122844 
 4975000    285.93131   -197.10382    861.64492     30107.47   -1352.9933    340.07046   -1012.9228   -1570.1729     793.3809   -1352.9933            0            0            0            0            0   -576.20129   -27.922075 
 4980000    323.59897   -40.706916    877.73106    29555.692   -1388.9918    384.87024   -1004.1215   -1611.8846    798.85407   -1388.9918            0            0            0            0            0   -575.96128   -28.443355 
 4985000    302.84538   -58.546245    865.10875    29986.922   -1356.2952     360.1871   -996.10814   -1573.1148    792.99444   -1356.2952            0            0            0            0            0   -576.17492   -28.034322 
 4990000    296.22094   -154.60497    866.15794    29950.598   -1356.8269    352.30837   -1004.5185   -1580.6682    800.06587   -1356.8269            0            0            0            0            0   -576.22454   -28.068322 
 4995000    298.16801    -256.6417    859.49672     30182.72   -1347.3482     354.6241   -992.72405   -1571.6841    800.73758   -1347.3482            0            0            0            0            0   -576.40162   -27.852461 
 5000000     311.7351     286.3588    868.62309    29865.599    -1367.093    370.76003   -996.33299   -1583.2029    792.28967    -1367.093            0            0            0            0            0   -576.17984   -28.148206 
Loop time of 281509 on 1 procs for 5000000 steps with 2400 atoms

Performance: 1.535 ns/day, 15.639 hours/ns, 17.761 timesteps/s
100.0% CPU use with 1 MPI tasks x 1 OpenMP threads

MPI task timing breakdown:
Section |  min time  |  avg time  |  max time  |%varavg| %total
---------------------------------------------------------------
Pair    | 2.5973e+05 | 2.5973e+05 | 2.5973e+05 |   0.0 | 92.26
Bond    | 10.08      | 10.08      | 10.08      |   0.0 |  0.00
Kspace  | 9034.5     | 9034.5     | 9034.5     |   0.0 |  3.21
Neigh   | 7503.1     | 7503.1     | 7503.1     |   0.0 |  2.67
Comm    | 775.36     | 775.36     | 775.36     |   0.0 |  0.28
Output  | 0.072778   | 0.072778   | 0.072778   |   0.0 |  0.00
Modify  | 4301.2     | 4301.2     | 4301.2     |   0.0 |  1.53
Other   |            | 159.1      |            |       |  0.06

Nlocal:        2400.00 ave        2400 max        2400 min
Histogram: 1 0 0 0 0 0 0 0 0 0
Nghost:        18895.0 ave       18895 max       18895 min
Histogram: 1 0 0 0 0 0 0 0 0 0
Neighs:    1.86584e+06 ave 1.86584e+06 max 1.86584e+06 min
Histogram: 1 0 0 0 0 0 0 0 0 0

Total # of neighbors = 1865844
Ave neighs/atom = 777.43500
Ave special neighs/atom = 8.5000000
Neighbor list builds = 77706
Dangerous builds = 0
Total wall time: 94:18:46
