LAMMPS (29 Sep 2021 - Update 2)
OMP_NUM_THREADS environment is not set. Defaulting to 1 thread. (src/comm.cpp:98)
  using 1 OpenMP thread(s) per MPI task
Reading data file ...
  orthogonal box = (-15.466318 -15.466318 -15.466318) to (15.466318 15.466318 15.466318)
  1 by 1 by 1 MPI processor grid
  reading atoms ...
  2400 atoms
  scanning bonds ...
  3 = max bonds/atom
  scanning angles ...
  3 = max angles/atom
  scanning dihedrals ...
  4 = max dihedrals/atom
  reading bonds ...
  2400 bonds
  reading angles ...
  3600 angles
  reading dihedrals ...
  3600 dihedrals
Finding 1-2 1-3 1-4 neighbors ...
  special bond factors lj:    0        0        0       
  special bond factors coul:  0        0        0       
     3 = max # of 1-2 neighbors
     4 = max # of 1-3 neighbors
     8 = max # of 1-4 neighbors
    10 = max # of special neighbors
  special bonds CPU = 0.001 seconds
  read_data CPU = 0.025 seconds
  200 rigid bodies with 2400 atoms
PPPM initialization ...
  using 12-bit tables for long-range coulomb (src/kspace.cpp:340)
  G vector (1/distance) = 0.1428774
  grid = 6 6 6
  stencil order = 5
  estimated absolute RMS force accuracy = 0.0078609937
  estimated relative force accuracy = 2.3673149e-05
  using double precision FFTW3
  3d grid and FFT values/proc = 1331 216
Neighbor list info ...
  update every 1 steps, delay 10 steps, check yes
  max neighbors/atom: 2000, page size: 100000
  master list distance cutoff = 16.655
  ghost atom cutoff = 16.655
  binsize = 8.3275, bins = 4 4 4
  1 neighbor lists, perpetual/occasional/extra = 1 0 0
  (1) pair lj/cut/coul/long, perpetual
      attributes: half, newton on
      pair build: half/bin/newton
      stencil: half/bin/3d
      bin: standard
Setting up Verlet run ...
  Unit style    : real
  Current step  : 0
  Time step     : 1
Per MPI rank memory allocation (min/avg/max) = 29.12 | 29.12 | 29.12 Mbytes
Step Temp E_pair E_mol TotEng Press 
       0    293.19357     12647.25            0    12995.958     97828.19 
    5000    9491.3935    1697.3494            0    12985.874    74766.726 
Loop time of 339.055 on 1 procs for 5000 steps with 2400 atoms

Performance: 1.274 ns/day, 18.836 hours/ns, 14.747 timesteps/s
100.0% CPU use with 1 MPI tasks x 1 OpenMP threads

MPI task timing breakdown:
Section |  min time  |  avg time  |  max time  |%varavg| %total
---------------------------------------------------------------
Pair    | 283.07     | 283.07     | 283.07     |   0.0 | 83.49
Bond    | 0.0053004  | 0.0053004  | 0.0053004  |   0.0 |  0.00
Kspace  | 8.8824     | 8.8824     | 8.8824     |   0.0 |  2.62
Neigh   | 44.479     | 44.479     | 44.479     |   0.0 | 13.12
Comm    | 1.0732     | 1.0732     | 1.0732     |   0.0 |  0.32
Output  | 5.5691e-05 | 5.5691e-05 | 5.5691e-05 |   0.0 |  0.00
Modify  | 1.4055     | 1.4055     | 1.4055     |   0.0 |  0.41
Other   |            | 0.1346     |            |       |  0.04

Nlocal:        2400.00 ave        2400 max        2400 min
Histogram: 1 0 0 0 0 0 0 0 0 0
Nghost:        18994.0 ave       18994 max       18994 min
Histogram: 1 0 0 0 0 0 0 0 0 0
Neighs:    1.88185e+06 ave 1.88185e+06 max 1.88185e+06 min
Histogram: 1 0 0 0 0 0 0 0 0 0

Total # of neighbors = 1881853
Ave neighs/atom = 784.10542
Ave special neighs/atom = 8.5000000
Neighbor list builds = 426
Dangerous builds = 48
  create bodies CPU = 0.001 seconds
  200 rigid bodies with 2400 atoms
  3.8930168 = max distance from body owner to body atom
PPPM initialization ...
  using 12-bit tables for long-range coulomb (src/kspace.cpp:340)
  G vector (1/distance) = 0.1428774
  grid = 6 6 6
  stencil order = 5
  estimated absolute RMS force accuracy = 0.0078609937
  estimated relative force accuracy = 2.3673149e-05
  using double precision FFTW3
  3d grid and FFT values/proc = 1331 216
Setting up Verlet run ...
  Unit style    : real
  Current step  : 5000
  Time step     : 1
Per MPI rank memory allocation (min/avg/max) = 36.89 | 36.89 | 36.89 Mbytes
Step Temp E_pair E_mol TotEng Press Volume 
    5000    9491.3935    1697.3494            0    12985.874    57633.975    29597.212 
 1005000    311.36082   -1368.6964            0    -998.3815   -50.147653    29963.869 
Loop time of 57978.8 on 1 procs for 1000000 steps with 2400 atoms

Performance: 1.490 ns/day, 16.105 hours/ns, 17.248 timesteps/s
100.0% CPU use with 1 MPI tasks x 1 OpenMP threads

MPI task timing breakdown:
Section |  min time  |  avg time  |  max time  |%varavg| %total
---------------------------------------------------------------
Pair    | 53497      | 53497      | 53497      |   0.0 | 92.27
Bond    | 2.0297     | 2.0297     | 2.0297     |   0.0 |  0.00
Kspace  | 1798.2     | 1798.2     | 1798.2     |   0.0 |  3.10
Neigh   | 1547.2     | 1547.2     | 1547.2     |   0.0 |  2.67
Comm    | 168.34     | 168.34     | 168.34     |   0.0 |  0.29
Output  | 4.6579e-05 | 4.6579e-05 | 4.6579e-05 |   0.0 |  0.00
Modify  | 932.83     | 932.83     | 932.83     |   0.0 |  1.61
Other   |            | 33.18      |            |       |  0.06

Nlocal:        2400.00 ave        2400 max        2400 min
Histogram: 1 0 0 0 0 0 0 0 0 0
Nghost:        19034.0 ave       19034 max       19034 min
Histogram: 1 0 0 0 0 0 0 0 0 0
Neighs:    1.85859e+06 ave 1.85859e+06 max 1.85859e+06 min
Histogram: 1 0 0 0 0 0 0 0 0 0

Total # of neighbors = 1858589
Ave neighs/atom = 774.41208
Ave special neighs/atom = 8.5000000
Neighbor list builds = 15695
Dangerous builds = 0
PPPM initialization ...
  using 12-bit tables for long-range coulomb (src/kspace.cpp:340)
  G vector (1/distance) = 0.1426106
  grid = 6 6 6
  stencil order = 5
  estimated absolute RMS force accuracy = 0.0079419974
  estimated relative force accuracy = 2.3917089e-05
  using double precision FFTW3
  3d grid and FFT values/proc = 1331 216
Setting up Verlet run ...
  Unit style    : real
  Current step  : 0
  Time step     : 1
Per MPI rank memory allocation (min/avg/max) = 36.89 | 36.89 | 36.89 Mbytes
Step Temp Press v_dens Volume PotEng KinEng TotEng E_vdwl E_coul E_pair E_bond E_angle E_dihed E_impro E_mol E_long E_tail 
       0    311.36082    333.11424    865.77434    29963.869   -1368.7031    370.31488    -998.3882    -1587.763    796.78927   -1368.7031            0            0            0            0            0   -577.72933   -28.055891 
    5000    306.53774     -239.048    854.99727    30341.557   -1346.0062    364.57858   -981.42766   -1568.1999     799.8901   -1346.0062            0            0            0            0            0   -577.69646   -27.706654 
   10000     297.6035   -46.053179    869.01535    29852.118   -1363.4548     353.9527   -1009.5021   -1588.9834    803.26407   -1363.4548            0            0            0            0            0   -577.73547   -28.160918 
   15000      314.458    286.80819    849.59409    30534.521   -1312.6969    373.99849   -938.69843   -1538.7514    803.62157   -1312.6969            0            0            0            0            0   -577.56705   -27.531561 
   20000    296.72657    719.54537    861.43942    30114.652   -1333.1801    352.90973   -980.27035   -1547.9434    792.77599   -1333.1801            0            0            0            0            0   -578.01267   -27.915416 
   25000    324.79694    99.507442    866.73929     29930.51   -1354.1641    386.29503   -967.86911   -1577.2811    800.87827   -1354.1641            0            0            0            0            0   -577.76132   -28.087161 
   30000    314.62223    35.770644     850.7169     30494.22   -1326.6091    374.19382   -952.41532   -1550.9198    802.21433   -1326.6091            0            0            0            0            0   -577.90363   -27.567947 
   35000    313.66127     296.1652    870.11643    29814.342   -1366.6364     373.0509   -993.58553   -1580.4243    791.28945   -1366.6364            0            0            0            0            0   -577.50154   -28.196599 
   40000    296.57365    -141.1202    867.17968     29915.31    -1360.923    352.72785   -1008.1952   -1585.4254    802.38033    -1360.923            0            0            0            0            0   -577.87791   -28.101432 
   45000    289.84609    497.13637    853.64892    30389.482   -1311.4779    344.72647   -966.75141   -1528.3452    794.67033   -1311.4779            0            0            0            0            0   -577.80301    -27.66296 
   50000    311.24248    332.31897     866.3431    29944.197    -1345.869    370.17413   -975.69485   -1569.7433    801.82205    -1345.869            0            0            0            0            0   -577.94777   -28.074322 
   55000    306.80094   -221.20807    843.92999    30739.456   -1307.5709    364.89162   -942.67928   -1528.1096    798.40936   -1307.5709            0            0            0            0            0   -577.87064   -27.348013 
   60000    313.04375    -475.1111    845.57696    30679.583   -1329.4443    372.31646   -957.12784   -1549.0943    797.66052   -1329.4443            0            0            0            0            0   -578.01057   -27.401384 
   65000    294.16306   -254.73449     853.4992    30394.813   -1340.8039    349.86084   -990.94311    -1562.418    799.44232   -1340.8039            0            0            0            0            0   -577.82829   -27.658108 
   70000    275.44149   -510.27859    861.85619     30100.09   -1353.5676    327.59447   -1025.9731   -1579.6513    803.86944   -1353.5676            0            0            0            0            0   -577.78567   -27.928921 
   75000    325.28172   -262.77217     856.1055     30302.28   -1348.3354     386.8716   -961.46382   -1571.4511    800.98094   -1348.3354            0            0            0            0            0    -577.8653   -27.742567 
   80000    312.53721   -446.23841    857.26099    30261.436   -1349.7425    371.71401   -978.02847   -1565.8338    793.63295   -1349.7425            0            0            0            0            0   -577.54158   -27.780011 
   85000    293.70334   -298.99093    847.79274    30599.399   -1319.4002    349.31407   -970.08613   -1541.4785    799.85422   -1319.4002            0            0            0            0            0   -577.77594   -27.473187 
   90000    296.82237   -265.15287    853.76906    30385.206   -1341.6717    353.02367   -988.64804   -1554.9647    791.23431   -1341.6717            0            0            0            0            0   -577.94127   -27.666853 
   95000    312.81726   -1.5521358    846.32285    30652.544   -1309.9436    372.04708   -937.89652   -1536.0817    804.01898   -1309.9436            0            0            0            0            0   -577.88092   -27.425555 
  100000    300.46182   -154.19202    844.68222    30712.081   -1301.6424    357.35223   -944.29021   -1526.0609    802.22046   -1301.6424            0            0            0            0            0   -577.80199   -27.372389 
  105000    295.87364    95.087462    855.71445    30316.128   -1325.4878     351.8953   -973.59254   -1547.2654    799.59073   -1325.4878            0            0            0            0            0   -577.81312   -27.729895 
  110000    301.66635   -252.03021    856.62674    30283.842   -1334.8804    358.78482   -976.09561   -1562.7886    805.64706   -1334.8804            0            0            0            0            0   -577.73891   -27.759458 
  115000     278.0064    100.02318    853.86461    30381.806   -1312.4621    330.64503   -981.81709   -1545.2897    810.58414   -1312.4621            0            0            0            0            0   -577.75658    -27.66995 
  120000    294.66484    244.60558    860.57337    30144.959   -1321.1928    350.45763   -970.73515   -1549.5367    805.94027   -1321.1928            0            0            0            0            0   -577.59632   -27.887351 
  125000    293.25478   -308.78024    850.01876    30519.266   -1325.2509    348.78058   -976.47034   -1552.7514    805.16039   -1325.2509            0            0            0            0            0   -577.65993   -27.545323 
  130000    309.79695    33.138228     849.6667    30531.912   -1312.1269     368.4549   -943.67203   -1534.4552    800.04453   -1312.1269            0            0            0            0            0   -577.71626   -27.533914 
  135000    280.13051   -12.741272    857.48327    30253.592   -1327.7185    333.17131   -994.54722   -1552.9113    802.85565   -1327.7185            0            0            0            0            0   -577.66291   -27.787214 
  140000    292.16436   -432.99468    859.19728    30193.239    -1357.198     347.4837   -1009.7143   -1570.9133    791.49555    -1357.198            0            0            0            0            0    -577.7803   -27.842758 
  145000    300.69384   -303.95538    853.33015    30400.835   -1339.8711    357.62818   -982.24296   -1562.4389    800.23945   -1339.8711            0            0            0            0            0   -577.67169    -27.65263 
  150000    296.40515    72.208954    857.16863    30264.697   -1332.7444    352.52746   -980.21699   -1550.0779    795.10698   -1332.7444            0            0            0            0            0   -577.77349   -27.777018 
  155000    321.03562    531.83346    868.85887    29857.494   -1340.3398    381.82154   -958.51829   -1572.9228    810.24439   -1340.3398            0            0            0            0            0   -577.66137   -28.155847 
  160000    287.44584   -55.581072    868.07652    29884.403   -1350.9223    341.87176   -1009.0505   -1582.4018    809.17943   -1350.9223            0            0            0            0            0   -577.69988   -28.130494 
  165000    302.15266    417.75736    859.17705     30193.95   -1324.3444    359.36321   -964.98122   -1549.5903    802.89099   -1324.3444            0            0            0            0            0   -577.64513   -27.842102 
  170000    275.86251     50.15662    837.77904    30965.144   -1268.7459    328.09521   -940.65071   -1497.3289     806.5042   -1268.7459            0            0            0            0            0   -577.92124   -27.148688 
  175000    299.30032   -217.59733    850.61058    30498.032    -1310.021     355.9708   -954.05022   -1544.8981    812.60146    -1310.021            0            0            0            0            0   -577.72437   -27.564501 
  180000    310.37048    171.00313    854.41908     30362.09   -1319.4629    369.13702   -950.32592   -1546.7044    805.05103   -1319.4629            0            0            0            0            0    -577.8096   -27.687918 
  185000    304.34657   -33.312672    859.99318    30165.296   -1338.2665    361.97252   -976.29402   -1564.1147    803.59072   -1338.2665            0            0            0            0            0   -577.74255   -27.868549 
  190000    310.99617    157.12163    865.47561    29974.211   -1352.0764    369.88119    -982.1952   -1574.3787    800.12186   -1352.0764            0            0            0            0            0   -577.81955   -28.046211 
  195000    303.89626    264.57508    861.48925     30112.91   -1342.6287    361.43695   -981.19171   -1563.7616     799.0491   -1342.6287            0            0            0            0            0    -577.9162    -27.91703 
  200000    294.29896    78.388019    870.41329    29804.173   -1362.9747    350.02246   -1012.9522    -1585.417    800.25946   -1362.9747            0            0            0            0            0   -577.81712   -28.206219 
  205000    291.37059    141.70125    853.06678     30410.22   -1313.1385    346.53964   -966.59882   -1549.0905    813.77549   -1313.1385            0            0            0            0            0   -577.82347   -27.644095 
  210000    294.60544    181.55209    855.42968     30326.22   -1324.8025    350.38698   -974.41557    -1545.228    797.92898   -1324.8025            0            0            0            0            0   -577.50356   -27.720667 
  215000    309.13554    379.25695    871.84674    29755.171   -1358.8703    367.66825   -991.20204   -1582.6818    801.46617   -1358.8703            0            0            0            0            0   -577.65467    -28.25267 
  220000    310.73587   -9.5260827    878.78414    29520.274   -1384.3596     369.5716    -1014.788   -1608.5206    801.81752   -1384.3596            0            0            0            0            0   -577.65657   -28.477481 
  225000    296.30977   -21.103913    859.20106    30193.106   -1327.4715    352.41401   -975.05748   -1552.8835    803.25289   -1327.4715            0            0            0            0            0    -577.8409    -27.84288 
  230000    306.25167   -5.1479743    851.97485    30449.195   -1312.1226    364.23834   -947.88424   -1537.3215    802.99321   -1312.1226            0            0            0            0            0    -577.7943   -27.608711 
  235000    291.86774     480.6983    869.90782    29821.492   -1350.0435    347.13091   -1002.9126   -1569.3876    797.24552   -1350.0435            0            0            0            0            0   -577.90145   -28.189839 
  240000    280.96588    65.050046    851.42509    30468.856   -1307.4465    334.16487   -973.28167   -1537.4135    807.53722   -1307.4465            0            0            0            0            0   -577.57029   -27.590896 
  245000    301.75206   -178.13324    853.01464    30412.079   -1333.6193    358.88676   -974.73251   -1559.7362     803.7447   -1333.6193            0            0            0            0            0   -577.62776   -27.642406 
  250000    289.84873   -225.93787    844.69381     30711.66   -1308.8051    344.72962   -964.07547   -1529.5407    798.63873   -1308.8051            0            0            0            0            0   -577.90313   -27.372765 
  255000    311.89285     162.6721    866.13567    29951.368   -1341.6768    370.94764   -970.72915   -1569.1762    805.07886   -1341.6768            0            0            0            0            0   -577.57946     -28.0676 
  260000    308.59427    230.39691    872.60012    29729.481   -1366.4045     367.0245      -999.38   -1588.4222    799.83545   -1366.4045            0            0            0            0            0   -577.81776   -28.277084 
  265000    304.85891   -234.23849    839.89255    30887.223   -1297.8938    362.58187   -935.31196   -1522.8764    802.85508   -1297.8938            0            0            0            0            0   -577.87247   -27.217177 
  270000    295.46657    221.77427    852.89066      30416.5   -1310.1598    351.41116    -958.7486   -1540.9819     808.3604   -1310.1598            0            0            0            0            0    -577.5383   -27.638388 
  275000    320.81121    409.86461     863.7944     30032.55   -1336.1617    381.55463   -954.60707   -1563.6931    805.13112   -1336.1617            0            0            0            0            0   -577.59969    -27.99173 
  280000    299.32588   -79.434199    843.41284    30758.304   -1301.4023     356.0012   -945.40114   -1525.6092    801.87054   -1301.4023            0            0            0            0            0   -577.66363   -27.331254 
  285000    272.40831    266.88984    867.46373    29905.514   -1364.5014    323.98698   -1040.5144   -1582.7358    795.94203   -1364.5014            0            0            0            0            0   -577.70763   -28.110637 
  290000    278.99385    164.63796     863.2971     30049.85   -1338.3217    331.81944   -1006.5022   -1562.8473    802.25834   -1338.3217            0            0            0            0            0   -577.73273   -27.975615 
  295000    296.34491    157.48641    864.68705    30001.546   -1351.0423    352.45581   -998.58649   -1573.0928    799.75886   -1351.0423            0            0            0            0            0    -577.7084   -28.020657 
  300000    300.77726     39.62066    865.06684    29988.375   -1356.6978    357.72739   -998.97045   -1570.5116    791.55513   -1356.6978            0            0            0            0            0   -577.74138   -28.032964 
  305000    308.37912   -203.28307    846.71532    30638.336   -1315.4934    366.76861   -948.72475   -1538.6496    800.69973   -1315.4934            0            0            0            0            0   -577.54347   -27.438273 
  310000    308.28264   -287.05585    848.74665    30565.009   -1325.9214    366.65387   -959.26756   -1551.2456    802.76437   -1325.9214            0            0            0            0            0   -577.44021   -27.504099 
  315000    287.81963   -170.01045    848.77516    30563.982   -1320.0049    342.31632   -977.68861   -1546.1318    803.92174   -1320.0049            0            0            0            0            0   -577.79491   -27.505023 
  320000    306.19371   -325.13002    837.74381    30966.446   -1294.2419    364.16941   -930.07253   -1522.2173    805.80308   -1294.2419            0            0            0            0            0   -577.82775   -27.147546 
  325000     300.8442   -299.85147    859.52067    30181.879   -1348.7461      357.807    -990.9391   -1572.2703    801.25652   -1348.7461            0            0            0            0            0   -577.73236   -27.853237 
  330000    302.70158    223.26323    846.58344    30643.109   -1296.9786    360.01607   -936.96252   -1519.8568    800.58178   -1296.9786            0            0            0            0            0   -577.70353   -27.433999 
  335000    293.26724   -273.99936    849.96282    30521.275   -1317.8526    348.79541   -969.05718   -1537.7974    797.80109   -1317.8526            0            0            0            0            0   -577.85628    -27.54351 
  340000    288.86753    80.743275    848.07646    30589.162   -1309.7785    343.56264   -966.21588   -1529.0677    797.14997   -1309.7785            0            0            0            0            0   -577.86076   -27.482382 
  345000     309.3198    87.101638    852.88324    30416.764   -1315.5977     367.8874   -947.71034   -1543.8002    805.89574   -1315.5977            0            0            0            0            0   -577.69325   -27.638148 
  350000    302.99886    604.49364    874.62852    29660.534   -1363.0434    360.36964   -1002.6738   -1578.0771     792.6857   -1363.0434            0            0            0            0            0   -577.65202   -28.342815 
  355000    284.25399   -185.43066    858.88727    30204.137   -1349.9107    338.07556   -1011.8352   -1568.3764    796.28692   -1349.9107            0            0            0            0            0   -577.82125   -27.832712 
  360000    306.61248   -331.72683    875.78444    29621.386   -1395.6012    364.66747   -1030.9337   -1619.5866    801.69688   -1395.6012            0            0            0            0            0   -577.71145   -28.380274 
  365000    296.47534   -250.38453    864.23008     30017.41    -1354.133    352.61093    -1001.522   -1575.9909    799.73698    -1354.133            0            0            0            0            0   -577.87903   -28.005849 
  370000    288.54979    261.90165    867.47685    29905.062   -1344.2695    343.18474   -1001.0848   -1572.4451    806.02593   -1344.2695            0            0            0            0            0   -577.85038   -28.111062 
  375000    310.09395   -609.55771    851.11526    30479.948   -1339.5001    368.80814   -970.69197   -1569.7075    807.68233   -1339.5001            0            0            0            0            0   -577.47494   -27.580855 
  380000    307.39366   -170.09016    853.70723    30387.406   -1331.7687    365.59656   -966.17215   -1554.2401    800.21632   -1331.7687            0            0            0            0            0   -577.74488    -27.66485 
  385000     318.0888   -314.39494    846.71793    30638.242   -1314.0512    378.31676   -935.73445   -1533.1344    796.79955   -1314.0512            0            0            0            0            0   -577.71631   -27.438358 
  390000      302.408   -458.33008    858.29621    30224.937   -1351.1248     359.6669    -991.4579    -1578.821    805.36731   -1351.1248            0            0            0            0            0   -577.67109   -27.813558 
  395000     295.3074   -296.43514    857.48807    30253.422   -1343.0602    351.22185   -991.83833   -1562.2689    796.95568   -1343.0602            0            0            0            0            0     -577.747    -27.78737 
  400000    294.97353    146.12282    856.87237    30275.161   -1329.8838    350.82476     -979.059   -1554.4803    802.32006   -1329.8838            0            0            0            0            0   -577.72348   -27.767418 
  405000    293.94402    25.910049    872.85623    29720.758   -1376.1704    349.60032   -1026.5701   -1594.4927    796.07668   -1376.1704            0            0            0            0            0   -577.75438   -28.285383 
  410000    284.48937     142.2724    868.70146    29862.905   -1350.9319    338.35551   -1012.5764   -1582.1144    809.01521   -1350.9319            0            0            0            0            0   -577.83276   -28.150746 
  415000    326.31514    471.21474    865.80852    29962.686   -1336.1454     388.1007    -948.0447   -1562.5595    804.06492   -1336.1454            0            0            0            0            0   -577.65082   -28.056999 
  420000    296.52301   -12.725515    850.88561    30488.174   -1307.2041    352.66763    -954.5365   -1538.0228    808.60121   -1307.2041            0            0            0            0            0   -577.78257   -27.573414 
  425000    294.29578    -201.4429    859.84787    30170.394   -1343.3215    350.01868   -993.30283   -1567.7062    802.02237   -1343.3215            0            0            0            0            0   -577.63772    -27.86384 
  430000     298.8689    237.58018    857.87698    30239.707   -1323.3502    355.45769   -967.89252   -1548.7403    803.09492   -1323.3502            0            0            0            0            0   -577.70482   -27.799973 
  435000     314.8015    276.64257    855.59632    30320.313   -1296.7953    374.40702   -922.38825   -1539.1301    820.08107   -1296.7953            0            0            0            0            0   -577.74623   -27.726067 
  440000    310.06077    823.76664    853.24491    30403.872   -1308.7539    368.76867   -939.98523   -1522.3216    791.66847   -1308.7539            0            0            0            0            0   -578.10077   -27.649868 
  445000     290.6505   -185.74237    866.89365     29925.18   -1371.2034     345.6832   -1025.5202   -1589.8973     796.3854   -1371.2034            0            0            0            0            0   -577.69149   -28.092163 
  450000    309.97737   -305.15989    841.37948    30832.638   -1303.6747    368.66948   -935.00523   -1531.1221    805.04983   -1303.6747            0            0            0            0            0   -577.60248   -27.265362 
  455000     285.5678   -339.03295    851.47394    30467.108   -1338.6942    339.63813   -999.05606   -1560.6132    799.79995   -1338.6942            0            0            0            0            0    -577.8809   -27.592479 
  460000    293.77008    30.913475    855.87672     30310.38   -1335.5456    349.39345   -986.15212   -1562.9231    804.91366   -1335.5456            0            0            0            0            0   -577.53613   -27.735153 
  465000    305.79121    374.95569    850.67461    30495.736   -1311.5326     363.6907   -947.84191   -1535.9616    802.11996   -1311.5326            0            0            0            0            0   -577.69101   -27.566576 
  470000    293.41666   -83.663991    853.84965    30382.338   -1323.2871    348.97312   -974.31401   -1551.8622    806.30908   -1323.2871            0            0            0            0            0   -577.73405   -27.669465 
  475000    290.87668   -65.496566    853.72787    30386.672   -1327.2187    345.95221   -981.26653   -1553.9352    804.58492   -1327.2187            0            0            0            0            0   -577.86847   -27.665519 
  480000    314.13302    228.96999      862.153    30089.727   -1340.7011    373.61198   -967.08912   -1563.3771    800.51401   -1340.7011            0            0            0            0            0   -577.83798    -27.93854 
  485000    287.11052    37.626304    867.16438    29915.837   -1366.7208    341.47295   -1025.2478   -1585.9649    797.23553   -1366.7208            0            0            0            0            0    -577.9914   -28.100936 
  490000    302.56982   -106.09964     866.5037    29938.647    -1361.103    359.85936   -1001.2436   -1589.7794    806.36962    -1361.103            0            0            0            0            0   -577.69313   -28.079526 
  495000    296.25224    72.103889    852.34508    30435.969   -1320.5304    352.34559   -968.18479   -1542.2198    799.51739   -1320.5304            0            0            0            0            0   -577.82802   -27.620708 
  500000    299.50825    532.66284    866.92356    29924.148   -1337.8904     356.2181   -981.67226   -1558.5743    798.51444   -1337.8904            0            0            0            0            0   -577.83052   -28.093132 
  505000    297.57882   -163.10224    861.06152    30127.869   -1355.4462    353.92335   -1001.5228   -1577.1005    799.41677   -1355.4462            0            0            0            0            0   -577.76248   -27.903169 
  510000    296.48929    322.73682    862.28182    30085.232   -1331.9599    352.62752    -979.3324   -1563.8625    809.43742   -1331.9599            0            0            0            0            0   -577.53486   -27.942714 
  515000    300.92324   -177.01121    864.93912    29992.803   -1364.1215    357.90101   -1006.2205   -1588.4158    802.17905   -1364.1215            0            0            0            0            0   -577.88482   -28.028825 
  520000     294.7833   -51.020531    847.57755    30607.168   -1314.8278    350.59852   -964.22926   -1537.7555    800.52659   -1314.8278            0            0            0            0            0   -577.59885   -27.466214 
  525000    312.54797   -290.78275    860.91378    30133.039   -1356.1399    371.72681   -984.41312   -1579.8176    801.45223   -1356.1399            0            0            0            0            0   -577.77458   -27.898382 
  530000    291.06918    25.688462    860.29774    30154.617   -1347.2723    346.18115   -1001.0911   -1569.6116     800.1496   -1347.2723            0            0            0            0            0   -577.81029   -27.878419 
  535000    346.74883    82.655339    846.62995    30641.426   -1310.1642    412.40337    -897.7608   -1536.4728    804.13112   -1310.1642            0            0            0            0            0    -577.8225   -27.435507 
  540000     291.4283   -150.76861    866.12571    29951.713   -1370.7777    346.60826   -1024.1694   -1588.6974    795.57757   -1370.7777            0            0            0            0            0   -577.65792   -28.067277 
  545000    318.44345    49.986289    853.70066     30387.64    -1318.378    378.73856   -939.63946    -1537.797    797.11871    -1318.378            0            0            0            0            0   -577.69977   -27.664637 
  550000    316.97034    466.90578    876.68218    29591.053   -1370.3034    376.98653   -993.31683   -1592.0745    799.67103   -1370.3034            0            0            0            0            0   -577.89986   -28.409365 
  555000    337.12392    107.98684    873.53679    29697.603   -1380.9333    400.95604   -979.97722   -1593.1085    789.97321   -1380.9333            0            0            0            0            0   -577.79798   -28.307438 
  560000    287.85114    157.72271    867.68944    29897.735   -1355.3039    342.35379   -1012.9501   -1577.3507    799.77765   -1355.3039            0            0            0            0            0   -577.73086   -28.117951 
  565000    330.73214    201.41986    839.82101    30889.854    -1279.823    393.35403   -886.46898   -1509.2157    807.01017    -1279.823            0            0            0            0            0   -577.61745   -27.214859 
  570000    286.56105   -126.41196    857.76828    30243.539   -1345.8136    340.81944   -1004.9941   -1567.3898    799.23294   -1345.8136            0            0            0            0            0   -577.65674    -27.79645 
  575000    290.26049     435.8343    873.38404    29702.797   -1361.5981    345.21934   -1016.3787   -1585.4914    801.37716   -1361.5981            0            0            0            0            0   -577.48385   -28.302488 
  580000    296.65146   -272.96806    871.35914    29771.821   -1374.9008    352.82041   -1022.0804   -1598.0251    800.73079   -1374.9008            0            0            0            0            0   -577.60651   -28.236869 
  585000    282.52838   -12.337669    859.59353     30179.32   -1335.1065    336.02322   -999.08324   -1557.1277    799.74107   -1335.1065            0            0            0            0            0   -577.71984   -27.855598 
  590000    285.98611    60.260832    856.56127    30286.156   -1320.6779    340.13564   -980.54225   -1546.1748    803.15216   -1320.6779            0            0            0            0            0   -577.65524   -27.757336 
  595000    313.37099   -325.21221    864.57283     30005.51   -1361.8058    372.70566   -989.10011   -1589.3375    805.55583   -1361.8058            0            0            0            0            0    -578.0241   -28.016955 
  600000    292.39415    203.23036     848.6177    30569.653   -1299.0312      347.757   -951.27424    -1526.565    805.38769   -1299.0312            0            0            0            0            0    -577.8539   -27.499921 
  605000    318.42929    4.9183821    842.26478     30800.23   -1295.4101    378.72172   -916.68834   -1517.3503    799.79161   -1295.4101            0            0            0            0            0   -577.85134   -27.294051 
  610000    301.97057    -202.5702    860.23495    30156.818   -1360.5626    359.14664    -1001.416   -1574.5773    791.95581   -1360.5626            0            0            0            0            0   -577.94115   -27.876384 
  615000    292.43756    341.25464    864.40615    30011.296   -1348.9093    347.80863   -1001.1006   -1569.9378    798.54392   -1348.9093            0            0            0            0            0   -577.51537   -28.011554 
  620000    283.87462    -192.0028    853.18566    30405.983   -1327.6175    337.62435   -989.99318   -1555.7949    805.83823   -1327.6175            0            0            0            0            0   -577.66091   -27.647948 
  625000    300.79549    507.59038    846.05397    30662.286   -1290.6884    357.74907   -932.93935    -1525.534    812.58002   -1290.6884            0            0            0            0            0   -577.73447   -27.416841 
  630000    301.54215   -641.92051    848.95357    30557.559   -1336.1189    358.63711   -977.48183   -1562.1196    803.47256   -1336.1189            0            0            0            0            0   -577.47187   -27.510805 
  635000    303.39509   -103.87812    859.99719    30165.155      -1341.6    360.84089   -980.75909   -1569.4088    805.58812      -1341.6            0            0            0            0            0   -577.77926   -27.868679 
  640000    296.24004   -121.49967    850.93921    30486.254   -1321.4844    352.33108   -969.15335    -1542.697    798.95617   -1321.4844            0            0            0            0            0   -577.74364    -27.57515 
  645000    292.42343    137.96205    854.21379    30369.386   -1314.5175    347.79182    -966.7257   -1543.7951    806.97685   -1314.5175            0            0            0            0            0   -577.69927   -27.681265 
  650000    314.81788     233.0811    865.35434    29978.412   -1343.6431    374.42651   -969.21661   -1562.4736    796.67981   -1343.6431            0            0            0            0            0   -577.84935   -28.042281 
  655000    310.04729    37.191688    861.73217    30104.422   -1347.2633    368.75264   -978.51064   -1564.7099    795.12837   -1347.2633            0            0            0            0            0    -577.6818   -27.924902 
  660000    306.84118    5.0107535    860.16791    30159.168   -1341.8191    364.93947   -976.87967    -1561.894    797.62021   -1341.8191            0            0            0            0            0   -577.54535   -27.874212 
  665000    291.00972   -377.93333    847.38338    30614.182   -1319.6871    346.11044   -973.57671    -1551.298    809.53375   -1319.6871            0            0            0            0            0    -577.9229   -27.459922 
  670000    304.14155   -565.42508    832.57658    31158.634   -1283.3549    361.72869   -921.62621   -1511.4261    805.71643   -1283.3549            0            0            0            0            0   -577.64525   -26.980099 
  675000    305.67191    209.68915    892.27183    29074.042   -1418.7494    363.54881   -1055.2006   -1640.5686    799.66955   -1418.7494            0            0            0            0            0   -577.85034   -28.914557 
  680000    324.17805    -19.29423     856.7626    30279.039   -1329.3669    385.55896   -943.80797   -1550.9198    799.04946   -1329.3669            0            0            0            0            0    -577.4966   -27.763861 
  685000    297.73817   -240.36851    855.72736     30315.67   -1334.2654    354.11287   -980.15255   -1559.3908    802.92325   -1334.2654            0            0            0            0            0   -577.79783   -27.730313 
  690000    303.03904   -283.10878    860.43372    30149.851   -1362.9357    360.41742   -1002.5183    -1580.345    795.16675   -1362.9357            0            0            0            0            0   -577.75738   -27.882825 
  695000    304.59775    88.999595    855.71059    30316.265   -1328.1351    362.27127   -965.86383   -1550.7997    800.48666   -1328.1351            0            0            0            0            0   -577.82205    -27.72977 
  700000    298.43891   -29.205891    852.13814    30443.361   -1315.0887     354.9463   -960.14239   -1541.0151     803.7642   -1315.0887            0            0            0            0            0   -577.83776   -27.614002 
  705000    293.78247   -351.68936    865.72301    29965.645   -1365.7313    349.40818   -1016.3231   -1588.8077    800.95549   -1365.7313            0            0            0            0            0    -577.8791   -28.054228 
  710000    297.11076    81.642723    867.75494    29895.478   -1357.3299    353.36667   -1003.9632   -1577.6197    798.03584   -1357.3299            0            0            0            0            0   -577.74596   -28.120073 
  715000    313.65613   -654.14993    838.66455    30932.449   -1312.0142    373.04479   -938.96941   -1536.4211    802.11875   -1312.0142            0            0            0            0            0   -577.71189   -27.177384 
  720000    309.96685    44.477423    838.92691    30922.776   -1286.5328    368.65696   -917.87581   -1514.8508    805.94115   -1286.5328            0            0            0            0            0   -577.62315   -27.185885 
  725000    295.12959   -224.08708    854.65873    30353.576   -1348.3299    351.01037   -997.31952   -1562.9607    792.40745   -1348.3299            0            0            0            0            0    -577.7766   -27.695683 
  730000    321.95961    90.420341    864.81543    29997.093   -1349.7333    382.92047    -966.8128   -1573.9013    802.03586   -1349.7333            0            0            0            0            0   -577.86779   -28.024817 
  735000    278.40772   -337.02084    850.09565    30516.506    -1329.226    331.12233   -998.10371   -1548.1451    796.71125    -1329.226            0            0            0            0            0   -577.79221   -27.547814 
  740000    285.18256     -347.881    850.68947    30495.204   -1330.7456    339.17994   -991.56564   -1558.4376    805.52174   -1330.7456            0            0            0            0            0   -577.82971   -27.567057 
  745000    292.51007    316.03594    872.02293    29749.159   -1359.8431    347.89487   -1011.9483   -1577.4356    795.43586   -1359.8431            0            0            0            0            0   -577.84343    -28.25838 
  750000    284.04218     292.0606    870.34431    29806.535   -1348.7603    337.82364   -1010.9367   -1576.2643     805.4825   -1348.7603            0            0            0            0            0   -577.97847   -28.203983 
  755000    322.66707    175.55019    860.67871    30141.269   -1352.2468    383.76189   -968.48489   -1570.3421    795.83567   -1352.2468            0            0            0            0            0   -577.74039   -27.890764 
  760000    304.09777    93.231771    863.66275    30037.128    -1356.686    361.67662   -995.00943   -1573.1176    794.39357    -1356.686            0            0            0            0            0   -577.96204   -27.987464 
  765000    307.26551   -80.799113    852.28926    30437.963   -1325.1301    365.44415   -959.68599   -1546.5808    799.26272   -1325.1301            0            0            0            0            0   -577.81211     -27.6189 
  770000    303.99099   -24.648694    855.18794    30334.792   -1329.6076    361.54962   -968.05795   -1555.9489    804.22815   -1329.6076            0            0            0            0            0   -577.88676   -27.712833 
  775000    298.73222   -135.76994    836.85533    30999.323   -1295.7142    355.29514   -940.41906   -1513.0139    794.94054   -1295.7142            0            0            0            0            0   -577.64082   -27.118755 
  780000    283.70833    10.004701    851.71496    30458.487   -1309.6827    337.42658   -972.25612   -1538.3381    806.25032   -1309.6827            0            0            0            0            0   -577.59492   -27.600289 
  785000    315.91811    596.94129    873.45505    29700.382   -1358.7083    375.73506   -982.97326   -1577.1622    796.05454   -1358.7083            0            0            0            0            0   -577.60069   -28.304789 
  790000    306.34336    136.50271    850.88353    30488.249     -1315.01     364.3474   -950.66265   -1538.5971    801.51097     -1315.01            0            0            0            0            0   -577.92393   -27.573346 
  795000    286.62734     340.2153    871.67637    29760.986   -1356.5015    340.89828   -1015.6032   -1568.1434    789.54858   -1356.5015            0            0            0            0            0   -577.90665    -28.24715 
  800000    307.72844    587.36303    857.30739    30259.798   -1311.3813    365.99473   -945.38661   -1535.4986    802.11339   -1311.3813            0            0            0            0            0   -577.99617   -27.781515 
  805000    289.17553    345.69357    856.45304    30289.984   -1329.5109    343.92896   -985.58189   -1550.2955    798.60306   -1329.5109            0            0            0            0            0   -577.81844   -27.753829 
  810000     298.4445    197.81102    863.49425    30042.989   -1334.9986    354.95293   -980.04565   -1565.2211    807.87407   -1334.9986            0            0            0            0            0   -577.65156   -27.982004 
  815000    312.46125    26.514557     849.8985    30523.584   -1312.3731    371.62366   -940.74949   -1529.5192     795.0742   -1312.3731            0            0            0            0            0   -577.92818   -27.541426 
  820000    298.86756   -176.19146    855.23548    30333.106   -1339.8859     355.4561    -984.4298   -1560.6192    798.63356   -1339.8859            0            0            0            0            0   -577.90031   -27.714373 
  825000    307.48176    412.14078    867.88777    29890.902   -1348.7273    365.70135   -983.02591   -1575.4973    804.46822   -1348.7273            0            0            0            0            0   -577.69814   -28.124378 
  830000    303.90454   -174.62587    851.83571    30454.169   -1332.5544     361.4468   -971.10762   -1552.6226      797.873   -1332.5544            0            0            0            0            0   -577.80477   -27.604202 
  835000    288.67118    315.07068    870.12148    29814.169   -1362.1817    343.32911   -1018.8525   -1583.7972     799.2306   -1362.1817            0            0            0            0            0   -577.61504   -28.196763 
  840000    295.11617    174.57206     862.7396    30069.268   -1337.2977    350.99441    -986.3033    -1563.186    803.76768   -1337.2977            0            0            0            0            0   -577.87936   -27.957549 
  845000    309.82745    385.54079    858.66205    30212.059   -1332.8703    368.49117   -964.37916   -1547.4939     792.3421   -1332.8703            0            0            0            0            0   -577.71857   -27.825413 
  850000    320.37989    206.61991    853.71855    30387.004   -1316.6619    381.04164   -935.62026   -1540.3455    801.37444   -1316.6619            0            0            0            0            0   -577.69079   -27.665216 
  855000    321.57825   -32.210003    856.73679    30279.952   -1339.9414    382.46691   -957.47448   -1565.7488    803.40558   -1339.9414            0            0            0            0            0   -577.59818   -27.763024 
  860000    289.68561    -191.2922    866.16617    29950.314   -1368.3481    344.53561   -1023.8125   -1589.1387    798.65457   -1368.3481            0            0            0            0            0   -577.86398   -28.068589 
  865000    301.01933    231.95319    859.63123    30177.997   -1330.7512     358.0153   -972.73591   -1562.7813    809.85225   -1330.7512            0            0            0            0            0   -577.82213    -27.85682 
  870000    339.30526     120.7909    857.88442    30239.445   -1325.5445     403.5504   -921.99411    -1552.021    804.32418   -1325.5445            0            0            0            0            0    -577.8477   -27.800214 
  875000    286.05057    278.59672    871.60022    29763.586    -1373.399     340.2123   -1033.1867   -1590.0605    794.38499    -1373.399            0            0            0            0            0   -577.72356   -28.244682 
  880000    294.39017    431.00638    870.98738    29784.529   -1363.6586    350.13095   -1013.5276   -1586.6117    800.74526   -1363.6586            0            0            0            0            0   -577.79216   -28.224822 
  885000    323.88808    261.38636    851.15647    30478.472   -1310.6118    385.21409   -925.39773   -1532.9197    800.02254   -1310.6118            0            0            0            0            0   -577.71463   -27.582191 
  890000    304.10155    270.12479    855.91126    30309.157   -1311.2049    361.68112   -949.52376   -1551.6712    818.31092   -1311.2049            0            0            0            0            0   -577.84459   -27.736273 
  895000    293.35826    164.34205    865.33854    29978.959   -1338.1104    348.90365   -989.20674   -1569.2276    808.92785   -1338.1104            0            0            0            0            0    -577.8106   -28.041769 
  900000    284.67938    440.49458    870.42375    29803.815    -1350.178    338.58149   -1011.5966   -1576.8485    804.38523    -1350.178            0            0            0            0            0   -577.71477   -28.206558 
  905000    281.88541   -643.37728    853.07516    30409.921   -1338.8997     335.2585   -1003.6412    -1567.866    806.58689   -1338.8997            0            0            0            0            0    -577.6206   -27.644367 
  910000    284.36408   -401.01089    859.47038    30183.645   -1357.6709    338.20649   -1019.4644    -1579.036    799.05415   -1357.6709            0            0            0            0            0   -577.68904   -27.851608 
  915000    310.87083    309.02489    862.12467    30090.716   -1332.7662    369.73211   -963.03406   -1550.6278    795.61607   -1332.7662            0            0            0            0            0   -577.75448   -27.937621 
  920000    292.20397   -73.709298    859.63325    30177.926   -1342.3492    347.53081   -994.81835   -1564.6583    800.12857   -1342.3492            0            0            0            0            0   -577.81945   -27.856886 
  925000    307.59376   -283.43084    847.78492    30599.682   -1319.0316    365.83456   -953.19703   -1540.4366    799.30939   -1319.0316            0            0            0            0            0   -577.90434   -27.472934 
  930000    299.33818   -50.097282    850.84587    30489.598   -1309.6497    356.01583    -953.6339    -1534.279    802.55876   -1309.6497            0            0            0            0            0   -577.92951   -27.572126 
  935000     310.2276   -85.001841    847.24437    30619.204   -1306.5054    368.96709   -937.53831   -1533.7545    805.01857   -1306.5054            0            0            0            0            0   -577.76945   -27.455417 
  940000    317.72649    155.91454    850.09857    30516.401   -1306.9896    377.88584   -929.10371   -1535.3395    806.10205   -1306.9896            0            0            0            0            0   -577.75211   -27.547909 
  945000    309.43457    210.24971    854.11718    30372.822   -1325.3032    368.02391   -957.27929   -1543.3394    795.85644   -1325.3032            0            0            0            0            0   -577.82029   -27.678134 
  950000    301.95182   -52.305932    853.90359    30380.419   -1316.4409    359.12435    -957.3166   -1548.4048    809.60576   -1316.4409            0            0            0            0            0   -577.64189   -27.671213 
  955000    306.53521    145.96939    861.54346    30111.016   -1344.8689    364.57557   -980.29337   -1567.1868    799.82306   -1344.8689            0            0            0            0            0   -577.50525   -27.918787 
  960000    295.16289   -72.146659     850.9216    30486.884   -1326.2798    351.04997   -975.22982   -1541.8438    793.48682   -1326.2798            0            0            0            0            0   -577.92284    -27.57458 
  965000    293.13505    219.80613    874.96415    29649.156   -1378.4462    348.63818    -1029.808   -1594.7036    793.87915   -1378.4462            0            0            0            0            0   -577.62172   -28.353692 
  970000    293.42939   -107.27418    856.23529    30297.687   -1347.9279    348.98825   -998.93967   -1565.3873    795.26493   -1347.9279            0            0            0            0            0   -577.80551   -27.746773 
  975000     305.3987   -604.93014    856.48885    30288.717   -1333.4369    363.22388   -970.21306   -1575.5085    819.51778   -1333.4369            0            0            0            0            0   -577.44617    -27.75499 
  980000    312.24472    647.37004    874.95482    29649.472   -1359.4628    371.36614   -988.09664   -1582.0222    800.14557   -1359.4628            0            0            0            0            0   -577.58615    -28.35339 
  985000    312.97413    520.67847    864.74716    29999.461   -1326.9844    372.23366   -954.75078   -1560.4765    811.18744   -1326.9844            0            0            0            0            0   -577.69534   -28.022605 
  990000    301.15244     132.1367    849.63927    30532.897   -1307.9597    358.17361   -949.78606   -1534.0771    803.88843   -1307.9597            0            0            0            0            0   -577.77103   -27.533025 
  995000    312.59759    49.127416     843.3421    30760.884   -1294.3999    371.78583   -922.61409   -1529.3649    812.72921   -1294.3999            0            0            0            0            0   -577.76419   -27.328962 
 1000000    317.51199    78.607107     860.7154    30139.984   -1342.7767    377.63073   -965.14594   -1562.5404    797.61745   -1342.7767            0            0            0            0            0   -577.85371   -27.891953 
 1005000    312.28046   -49.927866    860.76012    30138.418   -1345.9416    371.40865   -974.53297   -1569.6892    801.64493   -1345.9416            0            0            0            0            0   -577.89737   -27.893402 
 1010000    277.72428    258.25479    863.29546    30049.907   -1333.2984    330.30949   -1002.9889   -1553.2108    797.62995   -1333.2984            0            0            0            0            0   -577.71759   -27.975562 
 1015000    300.36947    49.590043    847.76428    30600.427   -1314.6361    357.24239   -957.39374   -1539.7735    802.98821   -1314.6361            0            0            0            0            0   -577.85079   -27.472265 
 1020000    296.50173    250.43919    858.02152    30234.613   -1316.8275    352.64232   -964.18522   -1547.3901    808.39392   -1316.8275            0            0            0            0            0   -577.83137   -27.804657 
 1025000     296.0896   -746.39056    864.80463    29997.467   -1385.8103    352.15215   -1033.6581   -1610.0406    801.93399   -1385.8103            0            0            0            0            0   -577.70369   -28.024467 
 1030000    277.22219   -217.84926    860.79529    30137.187   -1360.3596    329.71233   -1030.6473   -1575.6901    793.22155   -1360.3596            0            0            0            0            0   -577.89099   -27.894542 
 1035000    282.73045   -748.93994    847.80649    30598.903   -1347.8431    336.26354   -1011.5795   -1560.8416    790.70347   -1347.8431            0            0            0            0            0    -577.7049   -27.473633 
 1040000     307.8545   -100.70894    841.23551    30837.914   -1290.8034    366.14466   -924.65877   -1522.9343    809.65307   -1290.8034            0            0            0            0            0   -577.52221   -27.260697 
 1045000    285.57444   -45.337614     852.1249    30443.834   -1321.0782    339.64602   -981.43216   -1551.1679    807.76484   -1321.0782            0            0            0            0            0   -577.67509   -27.613573 
 1050000    306.93641    137.41607    837.30102    30982.822   -1287.5892    365.05273   -922.53648   -1514.3012    804.62016   -1287.5892            0            0            0            0            0    -577.9082   -27.133198 
 1055000    311.57378   -552.51288    844.32089    30725.224   -1316.7618    370.56816   -946.19367    -1543.227     804.2959   -1316.7618            0            0            0            0            0   -577.83077    -27.36068 
 1060000    296.29481   -163.69454    860.79782    30137.098   -1354.5634    352.39622   -1002.1671    -1581.797    804.76471   -1354.5634            0            0            0            0            0   -577.53108   -27.894624 
 1065000    296.31179   -343.46422    845.05959    30698.366   -1301.4065    352.41642   -948.99005    -1529.615    805.70742   -1301.4065            0            0            0            0            0   -577.49892   -27.384618 
 1070000    301.74392    -24.89487    861.12799    30125.544   -1357.1146    358.87708   -998.23755   -1569.9189    790.64746   -1357.1146            0            0            0            0            0   -577.84315   -27.905323 
 1075000    307.66908   -179.11289    866.34678     29944.07   -1365.4023    365.92413   -999.47817   -1586.9264    799.57155   -1365.4023            0            0            0            0            0    -578.0475   -28.074441 
 1080000    310.62128    389.46599     866.5399    29937.397   -1343.1535    369.43531   -973.71816    -1565.371    799.98329   -1343.1535            0            0            0            0            0   -577.76574   -28.080699 
 1085000    307.66533   -424.41876    853.21261    30405.023   -1329.2786    365.91967   -963.35889   -1555.3284    803.82379   -1329.2786            0            0            0            0            0   -577.77397   -27.648821 
 1090000    319.00362   -361.34474    845.80712    30671.235   -1317.0485    379.40478   -937.64372   -1549.7983    810.61243   -1317.0485            0            0            0            0            0   -577.86263   -27.408842 
 1095000    282.59799   -114.17906    861.98137    30095.719   -1349.8719      336.106   -1013.7659   -1576.3827     804.1758   -1349.8719            0            0            0            0            0   -577.66504   -27.932978 
 1100000    298.59907   -312.06711     848.7391     30565.28   -1327.3526    355.13678   -972.21581   -1548.8982    799.15305   -1327.3526            0            0            0            0            0   -577.60748   -27.503855 
 1105000    310.61682    388.17901    877.05562    29578.453   -1378.7362    369.43001   -1009.3062    -1598.121    797.08818   -1378.7362            0            0            0            0            0   -577.70338   -28.421467 
 1110000     293.4411   -167.35893    854.19745    30369.967   -1336.5232    349.00218   -987.52106   -1560.3437    801.55359   -1336.5232            0            0            0            0            0   -577.73313   -27.680736 
 1115000    293.50024   -306.52951    850.58454    30498.965   -1317.6249    349.07251    -968.5524   -1546.0003    806.34494   -1317.6249            0            0            0            0            0   -577.96951   -27.563657 
 1120000    293.76523   -471.30871    867.13887    29916.718   -1369.9033    349.38768   -1020.5157   -1599.5986    807.36228   -1369.9033            0            0            0            0            0   -577.66704   -28.100109 
 1125000    307.98553    27.233615    867.64004    29899.437   -1368.9125     366.3005    -1002.612    -1601.579    810.20069   -1368.9125            0            0            0            0            0   -577.53424    -28.11635 
 1130000    328.66651     373.5547    855.31942    30330.129   -1316.6415    390.89728   -925.74423   -1548.2239    809.23357   -1316.6415            0            0            0            0            0   -577.65118   -27.717094 
 1135000    299.34861    19.300003    873.66867     29693.12    -1382.238    356.02823   -1026.2098   -1598.8943     794.3429    -1382.238            0            0            0            0            0   -577.68658   -28.311711 
 1140000    311.88188   -321.20197    851.40985    30469.402   -1328.0818     370.9346   -957.14723   -1555.3804    804.87159   -1328.0818            0            0            0            0            0   -577.57305   -27.590402 
 1145000    320.46476    186.30256    868.26996    29877.745   -1358.5472    381.14259   -977.40462   -1580.5339    799.71099   -1358.5472            0            0            0            0            0   -577.72434   -28.136763 
 1150000    283.94299    417.11028    873.21568    29708.524   -1367.1858    337.70567   -1029.4802   -1585.0617    795.84942   -1367.1858            0            0            0            0            0   -577.97358   -28.297032 
 1155000    286.51233   -165.15418    867.26002    29912.538    -1360.405     340.7615   -1019.6435   -1587.2787     804.5402    -1360.405            0            0            0            0            0   -577.66651   -28.104035 
 1160000    290.53796   -283.79884    856.20601    30298.723   -1337.5703    345.54935   -992.02091   -1564.4164    804.58039   -1337.5703            0            0            0            0            0   -577.73425   -27.745824 
 1165000    295.33274    -151.8836    846.73682    30637.558   -1306.7374    351.25199   -955.48543   -1532.4268     803.2778   -1306.7374            0            0            0            0            0   -577.58837    -27.43897 
 1170000    298.80511   -391.00689    858.33375    30223.615    -1347.335    355.38183   -991.95319   -1573.7418    804.17894    -1347.335            0            0            0            0            0   -577.77214   -27.814775 
 1175000    307.35704   -227.37923    867.75109    29895.611   -1370.8114    365.55301   -1005.2583   -1590.8585    797.78442   -1370.8114            0            0            0            0            0   -577.73727   -28.119949 
 1180000    310.06245    230.62712    876.35135    29602.223   -1381.0713    368.77067   -1012.3007   -1600.6695    797.27294   -1381.0713            0            0            0            0            0   -577.67471   -28.398645 
 1185000    325.00184    -178.5278    863.67735     30036.62   -1356.9888    386.53874   -970.45004   -1578.3057    799.12908   -1356.9888            0            0            0            0            0   -577.81213   -27.987937 
 1190000    307.99333   -551.09886    853.14993    30407.256   -1331.0733    366.30978    -964.7635   -1561.6481     808.1889   -1331.0733            0            0            0            0            0   -577.61411    -27.64679 
 1195000    299.47269     212.1208    855.88369    30310.133   -1327.5304     356.1758   -971.35457   -1544.8866    794.97041   -1327.5304            0            0            0            0            0   -577.61418   -27.735379 
 1200000    277.66027    138.62566    858.53782    30216.431   -1327.7536    330.23336   -997.52021    -1555.102    805.01654   -1327.7536            0            0            0            0            0   -577.66813   -27.821388 
 1205000    287.59963   -145.61317    855.63072    30319.094   -1329.7615    342.05467   -987.70681   -1559.1953    807.22331   -1329.7615            0            0            0            0            0   -577.78946   -27.727182 
 1210000    296.48457    93.917164    868.17952    29880.857   -1355.4729    352.62192    -1002.851   -1577.6591    799.87487   -1355.4729            0            0            0            0            0   -577.68872   -28.133832 
 1215000    295.90661   -229.56858    868.72658    29862.041   -1367.0962    351.93451   -1015.1617   -1591.8543    802.23207   -1367.0962            0            0            0            0            0   -577.47394    -28.15156 
 1220000    321.42816    272.96999    850.68725    30495.283    -1299.243     382.2884   -916.95463   -1526.5825    805.10489    -1299.243            0            0            0            0            0   -577.76547   -27.566985 
 1225000    308.49261    124.35735    863.32179    30048.991   -1347.6306     366.9036   -980.72701   -1577.3496    807.41866   -1347.6306            0            0            0            0            0    -577.6997   -27.976415 
 1230000    294.61963    192.70855    857.21276    30263.139   -1321.6243    350.40386   -971.22048   -1550.9138    807.03659   -1321.6243            0            0            0            0            0    -577.7471   -27.778448 
 1235000    307.36725   -254.05012    860.63668    30142.741   -1344.8924    365.56516   -979.32728   -1567.4703    800.32907   -1344.8924            0            0            0            0            0   -577.75119   -27.889402 
 1240000    299.80853    192.41514    863.24684      30051.6   -1339.9446    356.57524   -983.36938   -1560.2868    798.30756   -1339.9446            0            0            0            0            0   -577.96537   -27.973986 
 1245000    314.01013    46.454336    860.37272    30151.989   -1342.6543    373.46581   -969.18852   -1571.4607    806.67038   -1342.6543            0            0            0            0            0   -577.86404   -27.880849 
 1250000     284.3365    374.29029    867.80717    29893.679   -1354.3384    338.17369   -1016.1647   -1574.4338    797.87684   -1354.3384            0            0            0            0            0    -577.7814   -28.121766 
 1255000    302.00813    97.712035    866.04911    29954.362   -1352.9708    359.19132    -993.7795   -1575.6873      800.502   -1352.9708            0            0            0            0            0   -577.78549   -28.064795 
 1260000    303.93928   -138.20876    850.35133     30507.33   -1318.7162    361.48812   -957.22813   -1543.6495    802.79122   -1318.7162            0            0            0            0            0   -577.85796     -27.5561 
 1265000    311.96173    244.58916    862.76968     30068.22   -1327.4932    371.02957   -956.46366    -1560.654     811.1373   -1327.4932            0            0            0            0            0   -577.97653   -27.958523 
 1270000    299.02534   -20.449689     867.0207    29920.795   -1351.4666    355.64376   -995.82284   -1573.5968    799.88879   -1351.4666            0            0            0            0            0    -577.7586    -28.09628 
 1275000    276.36519   -174.25622    840.97256    30847.557   -1297.0731    328.69306   -968.38007   -1521.8519    802.34941   -1297.0731            0            0            0            0            0   -577.57068   -27.252176 
 1280000    289.65814    141.37054     860.1971    30158.145   -1341.7503    344.50295   -997.24732   -1565.6795    801.71115   -1341.7503            0            0            0            0            0   -577.78187   -27.875157 
 1285000    306.60444    195.79624     852.8332    30418.549   -1309.3562    364.65791   -944.69824   -1538.7851    807.41583   -1309.3562            0            0            0            0            0   -577.98685   -27.636526 
 1290000    294.18265    649.31602    863.39942    30046.289   -1330.4652    349.88414   -980.58111   -1553.2602    800.55104   -1330.4652            0            0            0            0            0   -577.75613    -27.97893 
 1295000    286.35584    85.577257    864.36413    30012.755   -1351.3264    340.57537    -1010.751   -1567.9257    794.21568   -1351.3264            0            0            0            0            0   -577.61631   -28.010192 
 1300000    312.12287    527.64525    859.47594    30183.449   -1319.3782    371.22121     -948.157   -1541.5101    799.63373   -1319.3782            0            0            0            0            0   -577.50183   -27.851788 
 1305000    293.28028   -72.747526    848.82637    30562.138   -1320.3413    348.81091   -971.53035   -1535.2421    792.59468   -1320.3413            0            0            0            0            0   -577.69383   -27.506683 
 1310000    301.71047    568.30425     873.5167    29698.286   -1351.9773    358.83729   -993.13996   -1582.1272    807.95726   -1351.9773            0            0            0            0            0   -577.80733   -28.306786 
 1315000    318.04749    174.04365    866.68303    29932.453   -1362.4736    378.26762   -984.20594   -1585.8323    801.18492   -1362.4736            0            0            0            0            0   -577.82615   -28.085337 
 1320000    317.13512   -421.23624    850.24156    30511.269   -1319.7268     377.1825   -942.54431   -1545.7212    803.69623   -1319.7268            0            0            0            0            0   -577.70181   -27.552543 
 1325000    331.52773    255.44815    863.02349    30059.377   -1336.7724    394.30025   -942.47218   -1565.7474    806.59121   -1336.7724            0            0            0            0            0   -577.61626   -27.966748 
 1330000    302.60371    177.31061    854.12966    30372.378   -1323.7134    359.89967   -963.81371   -1550.2484    804.19831   -1323.7134            0            0            0            0            0   -577.66326   -27.678539 
 1335000    305.56007   -398.85723    864.00816     30025.12   -1355.5296    363.41579   -992.11382   -1580.0259    802.36444   -1355.5296            0            0            0            0            0   -577.86815   -27.998657 
 1340000    303.35576   -211.38556    867.72108    29896.645   -1361.0334    360.79412   -1000.2393    -1585.158    801.76665   -1361.0334            0            0            0            0            0    -577.6421   -28.118976 
 1345000    271.72623    51.118776    854.58242    30356.286   -1330.7865    323.17575   -1007.6108   -1550.1283    797.11621   -1330.7865            0            0            0            0            0   -577.77446   -27.693211 
 1350000    321.51582    375.94035    874.19684     29675.18   -1369.0836    382.39266   -986.69092   -1588.6147    797.42573   -1369.0836            0            0            0            0            0   -577.89456   -28.328827 
 1355000    317.35743    39.645202    850.34094    30507.703   -1318.6135     377.4469   -941.16656     -1544.43    803.46652   -1318.6135            0            0            0            0            0   -577.65001   -27.555763 
 1360000    280.52395    150.55948    836.56776    31009.979   -1278.9728    333.63926   -945.33351   -1502.3172    801.09172   -1278.9728            0            0            0            0            0   -577.74733   -27.109436 
 1365000    288.02935    429.37396    866.25456    29947.258   -1338.2372    342.56576   -995.67146   -1564.7001    804.18185   -1338.2372            0            0            0            0            0     -577.719   -28.071453 
 1370000    287.41873   -396.02374    858.19794    30228.398   -1350.0011    341.83951   -1008.1616   -1573.4896     801.2138   -1350.0011            0            0            0            0            0   -577.72527   -27.810374 
 1375000    284.01841   -561.65696    845.26961    30690.739   -1318.1529    337.79536   -980.35754   -1543.9183    803.57266   -1318.1529            0            0            0            0            0   -577.80729   -27.391424 
 1380000    307.89602   -178.75761     863.5536    30040.925   -1347.9803    366.19404   -981.78625   -1579.2174    808.82385   -1347.9803            0            0            0            0            0   -577.58668   -27.983927 
 1385000    320.97285   -86.116266    844.66099    30712.853   -1301.7473    381.74688   -920.00046   -1534.2718    810.48393   -1301.7473            0            0            0            0            0   -577.95944   -27.371701 
 1390000    301.97614   -207.70244    862.61692    30073.545   -1350.6138    359.15327   -991.46049   -1578.7707    805.90971   -1350.6138            0            0            0            0            0   -577.75279   -27.953573 
 1395000    302.30588   -119.54699    871.88469    29753.876   -1368.0803    359.54544   -1008.5349   -1600.6258    810.41121   -1368.0803            0            0            0            0            0   -577.86572     -28.2539 
 1400000    317.74789    680.83532    880.90667    29449.146   -1364.1951     377.9113   -986.28376   -1589.7774    803.30266   -1364.1951            0            0            0            0            0   -577.72035   -28.546262 
 1405000    295.69213   -169.93877    861.51985    30111.841   -1363.2623    351.67943   -1011.5829   -1577.3394    791.88899   -1363.2623            0            0            0            0            0   -577.81187   -27.918022 
 1410000    302.05656    31.735423    852.07258    30445.703   -1311.3701    359.24892   -952.12121   -1539.7408    806.12668   -1311.3701            0            0            0            0            0   -577.75605   -27.611878 
 1415000    320.15526    187.71735    863.17381    30054.142   -1340.5976    380.77448   -959.82313   -1569.4258    806.39176   -1340.5976            0            0            0            0            0   -577.56362   -27.971619 
 1420000    313.07734    79.124658    873.96731    29682.974   -1371.6868     372.3564   -999.33035   -1598.2129    804.09573   -1371.6868            0            0            0            0            0   -577.56963   -28.321389 
 1425000    288.56842     428.7259    857.52259    30252.205   -1322.0163    343.20689   -978.80943   -1548.5026    804.18028   -1322.0163            0            0            0            0            0   -577.69398   -27.788488 
 1430000    295.93289   -26.119571     871.2116    29776.863   -1359.3834    351.96578   -1007.4177   -1591.7321    809.92521   -1359.3834            0            0            0            0            0   -577.57655   -28.232088 
 1435000    296.75297   -401.80145    838.22569    30948.644   -1299.3127    352.94113   -946.37153   -1528.0566    806.41963   -1299.3127            0            0            0            0            0   -577.67573   -27.163162 
 1440000    320.07958   -257.03176    863.93765     30027.57    -1362.134    380.68448   -981.44952   -1581.9041    797.48577    -1362.134            0            0            0            0            0   -577.71565   -27.996372 
 1445000    305.42826    153.80222    861.08988    30126.877   -1337.9424    363.25903   -974.68339   -1566.5916    806.40644   -1337.9424            0            0            0            0            0   -577.75728   -27.904089 
 1450000    285.75372   -311.10993    847.37675    30614.421   -1325.8104    339.85924    -985.9512   -1540.9768    792.87917   -1325.8104            0            0            0            0            0   -577.71284   -27.459707 
 1455000    288.99043   -446.96687    864.55404    30006.162   -1377.2392     343.7088   -1033.5304   -1597.6179    798.03021   -1377.2392            0            0            0            0            0   -577.65156   -28.016346 
 1460000     318.5087     -54.4015    857.21492    30263.063   -1330.9509    378.81616    -952.1347   -1557.4441    804.40365   -1330.9509            0            0            0            0            0   -577.91039   -27.778518 
 1465000     284.7536   -59.855866    861.57375    30109.957   -1346.7704    338.66976   -1008.1006   -1572.0347    803.27169   -1346.7704            0            0            0            0            0   -578.00739   -27.919769 
 1470000    293.75734   -229.38181    861.82513    30101.174   -1345.6465    349.37829   -996.26816   -1572.9232     804.5739   -1345.6465            0            0            0            0            0    -577.2972   -27.927915 
 1475000     289.7167   -351.48917    854.43321    30361.588   -1333.9209    344.57259   -989.34826   -1556.1437    800.12474   -1333.9209            0            0            0            0            0   -577.90192   -27.688375 
 1480000    297.42218   -386.38158    846.64192    30640.992   -1314.2181    353.73705   -960.48101   -1536.7682    800.21778   -1314.2181            0            0            0            0            0   -577.66765   -27.435894 
 1485000     299.6408   -322.65895    850.74742    30493.126   -1336.6657    356.37576   -980.28992   -1557.0635    798.32962   -1336.6657            0            0            0            0            0   -577.93183   -27.568936 
 1490000    297.80416      441.796     862.9118    30063.268   -1337.6212    354.19136   -983.42982   -1557.6881    797.56653   -1337.6212            0            0            0            0            0   -577.49957   -27.963129 
 1495000    309.65513    32.997068    855.61093    30319.796   -1334.8856    368.28623   -966.59934   -1557.6161    800.59233   -1334.8856            0            0            0            0            0   -577.86185    -27.72654 
 1500000    283.13917    390.42062    865.19939     29983.78   -1334.8029    336.74965   -998.05324   -1558.7979    802.01361   -1334.8029            0            0            0            0            0   -578.01862   -28.037259 
 1505000    301.67601    668.45169    866.50804    29938.497   -1335.3546    358.79631   -976.55827    -1556.356    798.81608   -1335.3546            0            0            0            0            0   -577.81468   -28.079667 
 1510000    293.39204    1.1472132    842.59883    30788.019   -1295.4053    348.94383   -946.46149    -1523.734    805.95371   -1295.4053            0            0            0            0            0   -577.62504   -27.304876 
 1515000     289.4735   -566.44414    848.89389    30559.707   -1323.2471    344.28335   -978.96374   -1548.2697    802.64177   -1323.2471            0            0            0            0            0   -577.61913   -27.508871 
 1520000    275.11038   -126.12893    865.31719    29979.699   -1342.6472    327.20067   -1015.4465   -1574.4728    809.62549   -1342.6472            0            0            0            0            0   -577.79991   -28.041077 
 1525000    282.84986   -183.94435    858.97242    30201.143   -1343.0763    336.40557   -1006.6707   -1570.6199    805.45719   -1343.0763            0            0            0            0            0    -577.9136   -27.835471 
 1530000    303.62575    271.85121    856.50556    30288.126   -1330.6927    361.11522    -969.5775   -1557.3607    804.27596   -1330.6927            0            0            0            0            0   -577.60802   -27.755531 
 1535000    303.57786   -261.66798    851.88512    30452.403    -1331.675    361.05826   -970.61676   -1560.3432    806.53225    -1331.675            0            0            0            0            0   -577.86407   -27.605803 
 1540000    305.38296    273.33441    862.45919    30079.045   -1336.7644    363.20515   -973.55928   -1563.0483    804.23276   -1336.7644            0            0            0            0            0   -577.94893   -27.948462 
 1545000    299.60985   -184.97266    874.71951    29657.448   -1381.1068    356.33894   -1024.7679   -1609.2461    805.79674   -1381.1068            0            0            0            0            0   -577.65748   -28.345764 
 1550000    290.10883   -194.76334    849.84317    30525.572   -1319.7882    345.03897   -974.74922    -1548.691    806.47818   -1319.7882            0            0            0            0            0   -577.57539   -27.539633 
 1555000    303.04478   -164.25794    863.40398     30046.13   -1357.1909    360.42426   -996.76669   -1584.0704    804.58056   -1357.1909            0            0            0            0            0   -577.70114   -27.979078 
 1560000    318.86809    492.53092    869.70368    29828.491   -1347.5916     379.2436   -968.34801   -1571.9535    801.97143   -1347.5916            0            0            0            0            0    -577.6095   -28.183223 
 1565000    289.56156   -64.957386    867.23801    29913.297   -1354.3294    344.38808   -1009.9413   -1580.4332     803.7898   -1354.3294            0            0            0            0            0     -577.686   -28.103322 
 1570000    306.23843    169.16953    859.81216    30171.647    -1339.683     364.2226   -975.46037   -1558.3761    796.74181    -1339.683            0            0            0            0            0   -578.04872   -27.862683 
 1575000      281.884   -162.33821     828.5133    31311.445   -1256.8088    335.25682     -921.552   -1483.5826    804.64387   -1256.8088            0            0            0            0            0   -577.87011   -26.848427 
 1580000     313.0444   -76.149241    865.33896    29978.945   -1359.7487    372.31723   -987.43146   -1584.4975    802.65261   -1359.7487            0            0            0            0            0   -577.90377   -28.041782 
 1585000    273.53908    267.29799    880.93605    29448.163   -1378.6368    325.33184   -1053.3049   -1607.9878    807.16183   -1378.6368            0            0            0            0            0   -577.81085   -28.547215 
 1590000    307.56442   -93.449722     855.5643    30321.448   -1325.1441    365.79965   -959.34441   -1551.8807    804.27119   -1325.1441            0            0            0            0            0   -577.53458   -27.725029 
 1595000    298.13842   -118.40772    851.82793    30454.447   -1327.8295     354.5889   -973.24058   -1545.7031    795.46168   -1327.8295            0            0            0            0            0   -577.58808    -27.60395 
[...]
 4600000    292.72624   -71.528565    847.46971    30611.063   -1313.7797    348.15196   -965.62771   -1533.8821    797.95384   -1313.7797            0            0            0            0            0   -577.85145   -27.462719 
 4605000    280.77575   -129.10191    855.46829    30324.851   -1335.5309    333.93874   -1001.5922   -1561.9185    803.94286   -1335.5309            0            0            0            0            0   -577.55528   -27.721918 
 4610000     303.0561    92.429904    872.73193    29724.991   -1365.6647    360.43771    -1005.227   -1593.2068    805.30054   -1365.6647            0            0            0            0            0   -577.75843   -28.281356 
 4615000    313.07947     204.2548    867.58965    29901.174   -1371.6987    372.35894   -999.33975   -1586.5938    792.53344   -1371.6987            0            0            0            0            0   -577.63838   -28.114717 
 4620000    307.55229    335.70365       857.86    30240.306   -1319.9068    365.78523   -954.12159    -1544.304    802.05795   -1319.9068            0            0            0            0            0   -577.66078   -27.799422 
 4625000    326.01044     766.2353    885.46546    29297.527   -1393.3501     387.7383   -1005.6118    -1610.021    794.46555   -1393.3501            0            0            0            0            0   -577.79472   -28.693993 
 4630000    313.18741    276.69965    871.18806    29777.668   -1361.8785    372.48732   -989.39117   -1589.3934    805.12253   -1361.8785            0            0            0            0            0   -577.60759   -28.231326 
 4635000    303.85456    370.04968    856.64214    30283.297   -1324.0887    361.38736   -962.70139   -1547.1904    801.05277   -1324.0887            0            0            0            0            0   -577.95111   -27.759957 
 4640000    292.93817     348.2341    882.42062     29398.62    -1389.802    348.40402    -1041.398   -1615.0925     803.1271    -1389.802            0            0            0            0            0   -577.83661   -28.595323 
 4645000    291.79175    83.602663    866.64918    29933.621   -1361.6649    347.04053   -1014.6244    -1582.773    798.78476   -1361.6649            0            0            0            0            0   -577.67665   -28.084241 
 4650000    291.91056   -560.01243    852.20214    30441.074   -1345.0063    347.18185   -997.82445   -1567.7903    800.33415   -1345.0063            0            0            0            0            0   -577.55012   -27.616076 
 4655000     308.6391   -299.11336    852.58359    30427.455   -1329.7124    367.07781   -962.63461   -1550.4002    798.54272   -1329.7124            0            0            0            0            0   -577.85499   -27.628438 
 4660000    290.29928    244.82877    861.08087    30127.192   -1327.5325    345.26548   -982.26698   -1561.4925    811.89879   -1327.5325            0            0            0            0            0   -577.93871   -27.903796 
 4665000    309.01153    107.41375    846.93606    30630.351   -1307.0145    367.52077   -939.49373   -1531.1523    801.91476   -1307.0145            0            0            0            0            0   -577.77697   -27.445426 
 4670000    295.95454   -245.03727    850.26492     30510.43   -1314.0317    351.99153   -962.04019   -1548.3804     811.8966   -1314.0317            0            0            0            0            0   -577.54796     -27.5533 
 4675000    316.43557   -719.95087    854.36637    30363.963   -1348.2479     376.3505   -971.89737   -1570.5483    800.10303   -1348.2479            0            0            0            0            0   -577.80264    -27.68621 
 4680000     298.4128   -277.41261    857.89156    30239.193   -1342.8504    354.91524    -987.9352   -1566.1601    801.03853   -1342.8504            0            0            0            0            0   -577.72884   -27.800445 
 4685000    284.92817   -211.33782    851.30129    30473.287   -1323.6279    338.87738   -984.75057   -1549.9021    804.01514   -1323.6279            0            0            0            0            0   -577.74094   -27.586884 
 4690000    314.20358   -206.45786    869.83661    29823.933   -1371.8175     373.6959   -998.12164   -1597.5266    803.56451   -1371.8175            0            0            0            0            0   -577.85549   -28.187531 
 4695000    311.43259    276.57192    868.16695     29881.29   -1360.0062    370.40024   -989.60594   -1580.9673    798.66137   -1360.0062            0            0            0            0            0   -577.70027   -28.133425 
 4700000    294.02488   -50.804412      856.525    30287.439   -1337.0056     349.6965   -987.30915    -1556.599    797.43075   -1337.0056            0            0            0            0            0   -577.83738   -27.756161 
 4705000    299.10931   -126.86746     832.0999    31176.483   -1271.8532    355.74363   -916.10956   -1496.9467    803.01487   -1271.8532            0            0            0            0            0   -577.92137   -26.964652 
 4710000    297.99339   -193.05225    856.94898    30272.454     -1339.33    354.41642   -984.91363   -1562.7269    800.97381     -1339.33            0            0            0            0            0   -577.57696     -27.7699 
 4715000      306.726   -100.80569    843.25321    30764.127   -1296.5943    364.80249   -931.79177   -1525.6791    806.85597   -1296.5943            0            0            0            0            0   -577.77117   -27.326081 
 4720000    300.11428   -247.53586    836.34056    31018.403    -1277.644    356.93888    -920.7051   -1510.3601    810.38133    -1277.644            0            0            0            0            0   -577.66518   -27.102073 
 4725000    305.96176    515.12706    872.33431     29738.54   -1352.3485    363.89354   -988.45501   -1578.4379    803.89875   -1352.3485            0            0            0            0            0    -577.8094    -28.26847 
 4730000    299.56554    348.52814    861.11639    30125.949   -1327.2592    356.28625   -970.97294   -1548.1188    798.61313   -1327.2592            0            0            0            0            0   -577.75355   -27.904948 
 4735000    307.53194    763.28805    845.57746    30679.565   -1276.7279    365.76103   -910.96688    -1499.546    800.48063   -1276.7279            0            0            0            0            0   -577.66257     -27.4014 
 4740000    302.20877    157.52054     880.1539    29474.333   -1382.6492    359.42995   -1023.2193   -1606.5325    801.71578   -1382.6492            0            0            0            0            0   -577.83252   -28.521868 
 4745000    297.62691   -47.183665    872.45136     29734.55    -1375.992    353.98054   -1022.0115    -1598.645    800.50212    -1375.992            0            0            0            0            0   -577.84915   -28.272263 
 4750000    302.65702    237.94251    866.51106    29938.393   -1356.0189    359.96307   -996.05582   -1574.5949    796.47586   -1356.0189            0            0            0            0            0   -577.89987   -28.079765 
 4755000    263.69457   -272.54483     852.7877    30420.172   -1332.1229    313.62335   -1018.4995   -1545.5289    791.28649   -1332.1229            0            0            0            0            0   -577.88049   -27.635052 
 4760000    325.51476     590.4913    853.37027    30399.405   -1297.3445    387.14877   -910.19569   -1527.8044     808.3483   -1297.3445            0            0            0            0            0   -577.88841    -27.65393 
 4765000    286.91198   -179.88343    846.63033    30641.412   -1304.8663    341.23681   -963.62952   -1530.1449    803.00687   -1304.8663            0            0            0            0            0   -577.72835   -27.435519 
 4770000    298.51559     66.84922    853.22114    30404.719   -1309.0253    355.03749    -953.9878   -1541.1525    809.93253   -1309.0253            0            0            0            0            0   -577.80536   -27.649098 
 4775000    305.26051   -333.50606    847.62627    30605.409   -1320.6156    363.05951   -957.55605    -1547.981    805.17847   -1320.6156            0            0            0            0            0   -577.81301   -27.467793 
 4780000    305.48608    634.13826    862.13375    30090.399   -1334.7938     363.3278   -971.46596   -1553.3104    796.10823   -1334.7938            0            0            0            0            0   -577.59158   -27.937916 
 4785000    301.51214    219.57226    857.03929    30269.264   -1325.0537    358.60141   -966.45225   -1552.4613    804.77564   -1325.0537            0            0            0            0            0   -577.36803   -27.772827 
 4790000     307.0374   -169.16087    871.00508    29783.923   -1375.9919    365.17285    -1010.819   -1598.5778    800.51402   -1375.9919            0            0            0            0            0   -577.92809   -28.225396 
 4795000    302.66955   -299.38592    858.49882    30217.803   -1350.4614    359.97797   -990.48339   -1576.4543    803.56015   -1350.4614            0            0            0            0            0   -577.56725   -27.820124 
 4800000    289.26099    393.12004    858.28291    30225.405   -1309.3308    344.03059   -965.30017   -1540.2572    808.73719   -1309.3308            0            0            0            0            0   -577.81078   -27.813127 
 4805000    311.60214   -51.307081    850.52499    30501.101   -1325.6352    370.60189   -955.03335   -1547.0281    799.02145   -1325.6352            0            0            0            0            0   -577.62858   -27.561727 
 4810000    316.47994    324.21484     862.5984    30074.191   -1328.6203    376.40327   -952.21706   -1550.3104    799.30088   -1328.6203            0            0            0            0            0    -577.6108   -27.952973 
 4815000    284.34167   -313.10501    847.09617    30624.561   -1312.7472    338.17983   -974.56733   -1537.1678    802.21738   -1312.7472            0            0            0            0            0   -577.79679   -27.450615 
 4820000    306.81731    317.01991    848.91204    30559.054   -1304.9633    364.91109   -940.05223   -1529.5922    802.34906   -1304.9633            0            0            0            0            0   -577.72021   -27.509459 
 4825000    293.35108    -556.8863    846.01056    30663.859   -1326.9235    348.89511   -978.02843    -1547.048    797.89789   -1326.9235            0            0            0            0            0   -577.77341   -27.415435 
 4830000    280.28971    332.73172    877.52255    29562.715   -1377.0493    333.36066   -1043.6886   -1603.4884    804.21799   -1377.0493            0            0            0            0            0   -577.77894   -28.436598 
 4835000    294.01013   -41.394826    862.42486    30080.242   -1356.2446    349.67896   -1006.5656   -1576.5655     798.1154   -1356.2446            0            0            0            0            0    -577.7945   -27.947349 
 4840000    308.78789    247.77359    866.54036    29937.381   -1347.3044    367.25478   -980.04965   -1572.0162     802.5073   -1347.3044            0            0            0            0            0    -577.7955   -28.080714 
 4845000    308.93554    64.602611    863.14806    30055.039   -1347.3369    367.43038    -979.9065   -1570.3808    800.71384   -1347.3369            0            0            0            0            0   -577.66991   -27.970785 
 4850000    299.89588    358.43476    857.58017    30250.173   -1321.9274    356.67913   -965.24831   -1544.4118    800.35232   -1321.9274            0            0            0            0            0   -577.86796   -27.790355 
 4855000    265.10329    406.79133    859.16113    30194.509   -1327.0475     315.2988   -1011.7487   -1545.3429    796.04498   -1327.0475            0            0            0            0            0   -577.74955   -27.841586 
 4860000    301.01796    213.33642    855.73624    30315.356   -1318.4729    358.01367   -960.45919   -1545.9626    805.25509   -1318.4729            0            0            0            0            0   -577.76535   -27.730601 
 4865000    291.48457    434.79427    873.10315    29712.352   -1359.3754     346.6752   -1012.7002   -1576.6802    795.24293   -1359.3754            0            0            0            0            0   -577.93811   -28.293385 
 4870000    287.53987    306.53755    849.10508    30552.106   -1304.7317    341.98359   -962.74809   -1535.8567    808.82556   -1304.7317            0            0            0            0            0   -577.70052   -27.515714 
 4875000     304.4339   -287.87376    862.36108    30082.467   -1361.3133     362.0764   -999.23691   -1583.5606    799.70933   -1361.3133            0            0            0            0            0   -577.46202   -27.945282 
 4880000     294.6368    465.35808    880.53505    29461.574   -1388.3239    350.42427   -1037.8997   -1601.4558     790.9792   -1388.3239            0            0            0            0            0    -577.8473    -28.53422 
 4885000    310.09359    182.63197    871.33196     29772.75   -1369.5872    368.80771   -1000.7794   -1594.8794    802.86444   -1369.5872            0            0            0            0            0   -577.57224   -28.235989 
 4890000    275.65771   -311.17677    841.53718     30826.86   -1301.1785    327.85163   -973.32683   -1527.2987    803.78031   -1301.1785            0            0            0            0            0   -577.66002   -27.270473 
 4895000    319.69414   -278.74647    842.72878    30783.271   -1305.6813    380.22605   -925.45527   -1527.9326    799.64544   -1305.6813            0            0            0            0            0    -577.3942   -27.309087 
 4900000    295.75529    375.78774    854.63414    30354.449   -1312.3237    351.75454   -960.56916   -1542.4343     807.7873   -1312.3237            0            0            0            0            0   -577.67667   -27.694887 
 4905000    300.31497    55.992825    847.02403    30627.169   -1311.7347    357.17757   -954.55713   -1534.5069    800.66427   -1311.7347            0            0            0            0            0    -577.8921   -27.448277 
 4910000    301.62334    50.871236    856.85176    30275.889   -1331.1509    358.73367   -972.41727   -1553.4654    800.12625   -1331.1509            0            0            0            0            0   -577.81177    -27.76675 
 4915000    294.88939    313.94168    874.42341    29667.491   -1380.7488    350.72469   -1030.0241   -1590.9168    788.08365   -1380.7488            0            0            0            0            0   -577.91561   -28.336169 
 4920000    307.40339   -61.862786    862.63045    30073.073    -1348.934    365.60813   -983.32585   -1570.8378    799.91393    -1348.934            0            0            0            0            0   -578.01015   -27.954011 
 4925000    292.53194   -131.31771    857.51464    30252.485   -1346.5907    347.92087   -998.66978   -1571.7586    802.98784   -1346.5907            0            0            0            0            0   -577.81989   -27.788231 
 4930000    292.47178    295.08514    876.10895    29610.414   -1372.4116    347.84932   -1024.5623   -1594.2527    799.70651   -1372.4116            0            0            0            0            0   -577.86543    -28.39079 
 4935000    304.77334    119.33312    846.29953    30653.389   -1302.3977     362.4801   -939.91756   -1524.4354     799.9251   -1302.3977            0            0            0            0            0   -577.88733   -27.424799 
 4940000    300.33588    247.46044    854.57852    30356.425   -1312.2552    357.20244   -955.05275   -1535.0554    800.71295   -1312.2552            0            0            0            0            0   -577.91272   -27.693084 
 4945000    311.92021    169.17127    851.40456    30469.591   -1302.3627    370.98019   -931.38247    -1534.463    809.68194   -1302.3627            0            0            0            0            0   -577.58161    -27.59023 
 4950000    290.63298   -63.164884     863.7146    30035.325   -1357.1905    345.66236   -1011.5282   -1581.2359     801.6878   -1357.1905            0            0            0            0            0   -577.64239   -27.989144 
 4955000    296.97612    43.567477    857.83924    30241.038   -1319.0926    353.20653   -965.88607   -1550.1642    808.66574   -1319.0926            0            0            0            0            0   -577.59416    -27.79875 
 4960000    308.55481   -54.379967     872.2102    29742.772   -1391.8826    366.97757    -1024.905   -1601.3428    787.31567   -1391.8826            0            0            0            0            0   -577.85545   -28.264448 
 4965000    308.34303   -165.87398    864.69109    30001.406   -1354.5359    366.72568   -987.81025   -1573.7554     796.6643   -1354.5359            0            0            0            0            0   -577.44486   -28.020788 
 4970000    306.58748   -9.8074845    861.65191    30107.226   -1351.4651    364.63773   -986.82737    -1572.174    798.37826   -1351.4651            0            0            0            0            0   -577.66933   -27.922301 
 4975000    314.36511    94.861036    859.19083    30193.465   -1348.5479    373.88801   -974.65993    -1570.175    799.51632   -1348.5479            0            0            0            0            0    -577.8893   -27.842549 
 4980000    324.15841    52.505749    867.67157     29898.35   -1358.9406    385.53561   -973.40494    -1584.408    803.16873   -1358.9406            0            0            0            0            0   -577.70133   -28.117372 
 4985000    280.16703    177.67648    882.04136    29411.261   -1391.2804    333.21475   -1058.0656   -1620.5612    806.83179   -1391.2804            0            0            0            0            0     -577.551   -28.583033 
 4990000        283.7    95.383321    856.15763    30300.435   -1326.9211    337.41667   -989.50439   -1550.5374    801.35075   -1326.9211            0            0            0            0            0   -577.73436   -27.744256 
 4995000    290.55337   -397.84297     862.1865    30088.558   -1346.8249    345.56768   -1001.2572   -1581.4273    812.31875   -1346.8249            0            0            0            0            0   -577.71635   -27.939625 
 5000000    292.02051   -165.76248    858.51102    30217.374   -1342.3988    347.31261   -995.08617   -1571.3689    806.57139   -1342.3988            0            0            0            0            0   -577.60127   -27.820519 
Loop time of 292142 on 1 procs for 5000000 steps with 2400 atoms

Performance: 1.479 ns/day, 16.230 hours/ns, 17.115 timesteps/s
100.0% CPU use with 1 MPI tasks x 1 OpenMP threads

MPI task timing breakdown:
Section |  min time  |  avg time  |  max time  |%varavg| %total
---------------------------------------------------------------
Pair    | 2.6994e+05 | 2.6994e+05 | 2.6994e+05 |   0.0 | 92.40
Bond    | 11.165     | 11.165     | 11.165     |   0.0 |  0.00
Kspace  | 8992.6     | 8992.6     | 8992.6     |   0.0 |  3.08
Neigh   | 7773.8     | 7773.8     | 7773.8     |   0.0 |  2.66
Comm    | 834.28     | 834.28     | 834.28     |   0.0 |  0.29
Output  | 0.1365     | 0.1365     | 0.1365     |   0.0 |  0.00
Modify  | 4418.2     | 4418.2     | 4418.2     |   0.0 |  1.51
Other   |            | 167.3      |            |       |  0.06

Nlocal:        2400.00 ave        2400 max        2400 min
Histogram: 1 0 0 0 0 0 0 0 0 0
Nghost:        18806.0 ave       18806 max       18806 min
Histogram: 1 0 0 0 0 0 0 0 0 0
Neighs:    1.84833e+06 ave 1.84833e+06 max 1.84833e+06 min
Histogram: 1 0 0 0 0 0 0 0 0 0

Total # of neighbors = 1848333
Ave neighs/atom = 770.13875
Ave special neighs/atom = 8.5000000
Neighbor list builds = 78274
Dangerous builds = 0
Total wall time: 97:21:00
