LAMMPS (29 Sep 2021 - Update 2)
OMP_NUM_THREADS environment is not set. Defaulting to 1 thread. (src/comm.cpp:98)
  using 1 OpenMP thread(s) per MPI task
Reading data file ...
  orthogonal box = (-15.466318 -15.466318 -15.466318) to (15.466318 15.466318 15.466318)
  1 by 1 by 1 MPI processor grid
  reading atoms ...
  2400 atoms
  scanning bonds ...
  3 = max bonds/atom
  scanning angles ...
  3 = max angles/atom
  scanning dihedrals ...
  4 = max dihedrals/atom
  reading bonds ...
  2400 bonds
  reading angles ...
  3600 angles
  reading dihedrals ...
  3600 dihedrals
Finding 1-2 1-3 1-4 neighbors ...
  special bond factors lj:    0        0        0       
  special bond factors coul:  0        0        0       
     3 = max # of 1-2 neighbors
     4 = max # of 1-3 neighbors
     8 = max # of 1-4 neighbors
    10 = max # of special neighbors
  special bonds CPU = 0.001 seconds
  read_data CPU = 0.014 seconds
  200 rigid bodies with 2400 atoms
PPPM initialization ...
  using 12-bit tables for long-range coulomb (src/kspace.cpp:340)
  G vector (1/distance) = 0.1428774
  grid = 6 6 6
  stencil order = 5
  estimated absolute RMS force accuracy = 0.0078609937
  estimated relative force accuracy = 2.3673149e-05
  using double precision FFTW3
  3d grid and FFT values/proc = 1331 216
Neighbor list info ...
  update every 1 steps, delay 10 steps, check yes
  max neighbors/atom: 2000, page size: 100000
  master list distance cutoff = 16.655
  ghost atom cutoff = 16.655
  binsize = 8.3275, bins = 4 4 4
  1 neighbor lists, perpetual/occasional/extra = 1 0 0
  (1) pair lj/cut/coul/long, perpetual
      attributes: half, newton on
      pair build: half/bin/newton
      stencil: half/bin/3d
      bin: standard
Setting up Verlet run ...
  Unit style    : real
  Current step  : 0
  Time step     : 1
Per MPI rank memory allocation (min/avg/max) = 29.12 | 29.12 | 29.12 Mbytes
Step Temp E_pair E_mol TotEng Press 
       0    297.35061     12647.25            0    13000.902     97714.72 
    5000    9693.8065    1459.2714            0    12988.534    68439.549 
Loop time of 198.281 on 1 procs for 5000 steps with 2400 atoms

Performance: 2.179 ns/day, 11.016 hours/ns, 25.217 timesteps/s
100.0% CPU use with 1 MPI tasks x 1 OpenMP threads

MPI task timing breakdown:
Section |  min time  |  avg time  |  max time  |%varavg| %total
---------------------------------------------------------------
Pair    | 164.98     | 164.98     | 164.98     |   0.0 | 83.21
Bond    | 0.0047425  | 0.0047425  | 0.0047425  |   0.0 |  0.00
Kspace  | 4.9488     | 4.9488     | 4.9488     |   0.0 |  2.50
Neigh   | 26.707     | 26.707     | 26.707     |   0.0 | 13.47
Comm    | 0.7365     | 0.7365     | 0.7365     |   0.0 |  0.37
Output  | 3.1952e-05 | 3.1952e-05 | 3.1952e-05 |   0.0 |  0.00
Modify  | 0.79394    | 0.79394    | 0.79394    |   0.0 |  0.40
Other   |            | 0.1063     |            |       |  0.05

Nlocal:        2400.00 ave        2400 max        2400 min
Histogram: 1 0 0 0 0 0 0 0 0 0
Nghost:        19054.0 ave       19054 max       19054 min
Histogram: 1 0 0 0 0 0 0 0 0 0
Neighs:    1.88146e+06 ave 1.88146e+06 max 1.88146e+06 min
Histogram: 1 0 0 0 0 0 0 0 0 0

Total # of neighbors = 1881459
Ave neighs/atom = 783.94125
Ave special neighs/atom = 8.5000000
Neighbor list builds = 433
Dangerous builds = 82
  create bodies CPU = 0.000 seconds
  200 rigid bodies with 2400 atoms
  3.8930168 = max distance from body owner to body atom
PPPM initialization ...
  using 12-bit tables for long-range coulomb (src/kspace.cpp:340)
  G vector (1/distance) = 0.1428774
  grid = 6 6 6
  stencil order = 5
  estimated absolute RMS force accuracy = 0.0078609937
  estimated relative force accuracy = 2.3673149e-05
  using double precision FFTW3
  3d grid and FFT values/proc = 1331 216
Setting up Verlet run ...
  Unit style    : real
  Current step  : 5000
  Time step     : 1
Per MPI rank memory allocation (min/avg/max) = 36.93 | 36.93 | 36.93 Mbytes
Step Temp E_pair E_mol TotEng Press Volume 
    5000    9693.8065    1459.2714            0    12988.534    80727.416    29597.212 
 1005000    304.81871   -1334.3907            0   -971.85663    -914.1258    30635.334 
Loop time of 34288.2 on 1 procs for 1000000 steps with 2400 atoms

Performance: 2.520 ns/day, 9.524 hours/ns, 29.165 timesteps/s
100.0% CPU use with 1 MPI tasks x 1 OpenMP threads

MPI task timing breakdown:
Section |  min time  |  avg time  |  max time  |%varavg| %total
---------------------------------------------------------------
Pair    | 31660      | 31660      | 31660      |   0.0 | 92.33
Bond    | 1.7787     | 1.7787     | 1.7787     |   0.0 |  0.01
Kspace  | 1001.5     | 1001.5     | 1001.5     |   0.0 |  2.92
Neigh   | 924.35     | 924.35     | 924.35     |   0.0 |  2.70
Comm    | 108.88     | 108.88     | 108.88     |   0.0 |  0.32
Output  | 3.0367e-05 | 3.0367e-05 | 3.0367e-05 |   0.0 |  0.00
Modify  | 565.39     | 565.39     | 565.39     |   0.0 |  1.65
Other   |            | 26.48      |            |       |  0.08

Nlocal:        2400.00 ave        2400 max        2400 min
Histogram: 1 0 0 0 0 0 0 0 0 0
Nghost:        18743.0 ave       18743 max       18743 min
Histogram: 1 0 0 0 0 0 0 0 0 0
Neighs:    1.81836e+06 ave 1.81836e+06 max 1.81836e+06 min
Histogram: 1 0 0 0 0 0 0 0 0 0

Total # of neighbors = 1818364
Ave neighs/atom = 757.65167
Ave special neighs/atom = 8.5000000
Neighbor list builds = 15804
Dangerous builds = 0
PPPM initialization ...
  using 12-bit tables for long-range coulomb (src/kspace.cpp:340)
  G vector (1/distance) = 0.14212987
  grid = 6 6 6
  stencil order = 5
  estimated absolute RMS force accuracy = 0.0080894266
  estimated relative force accuracy = 2.4361068e-05
  using double precision FFTW3
  3d grid and FFT values/proc = 1331 216
Setting up Verlet run ...
  Unit style    : real
  Current step  : 0
  Time step     : 1
Per MPI rank memory allocation (min/avg/max) = 36.94 | 36.94 | 36.94 Mbytes
Step Temp Press v_dens Volume PotEng KinEng TotEng E_vdwl E_coul E_pair E_bond E_angle E_dihed E_impro E_mol E_long E_tail 
       0    304.81871   -677.09716    846.79828    30635.334   -1334.4347    362.53406   -971.90064   -1564.6327    806.02808   -1334.4347            0            0            0            0            0   -575.83004   -27.440962 
    5000    320.23717    305.76156    881.20586    29439.147   -1389.0011    380.87191   -1008.1291   -1608.7516    795.58213   -1389.0011            0            0            0            0            0   -575.83158   -28.555958 
   10000    306.01708   -101.49533    843.30708    30762.162   -1296.4192    363.95933   -932.45985   -1524.8597    804.38619   -1296.4192            0            0            0            0            0    -575.9457   -27.327827 
   15000    300.82541   -172.83187    844.87249    30705.164      -1322.2    357.78466   -964.41535   -1534.8218    788.53703      -1322.2            0            0            0            0            0    -575.9152   -27.378555 
   20000    303.65783    -35.58817    850.50319    30501.883   -1321.5013    361.15338   -960.34794   -1543.0428    797.35381   -1321.5013            0            0            0            0            0   -575.81233   -27.561021 
   25000    324.83606   -210.51335    848.71385     30566.19   -1322.5159    386.34156   -936.17435   -1534.3264    787.84068   -1322.5159            0            0            0            0            0    -576.0302   -27.503037 
   30000    323.68205   -292.80808     842.3019    30798.872   -1314.9267    384.96904   -929.95766   -1539.3993    799.91069   -1314.9267            0            0            0            0            0    -575.4381   -27.295254 
   35000    291.93127   -407.41674    840.48922    30865.296   -1303.0713    347.20648   -955.86486   -1528.9907    801.58159   -1303.0713            0            0            0            0            0   -575.66227   -27.236513 
   40000    304.48246    183.50002    849.36763    30542.662     -1301.03    362.13415   -938.89582   -1516.8145     791.5278     -1301.03            0            0            0            0            0    -575.7433   -27.524223 
   45000    317.22565    -118.0965    856.00658    30305.782   -1331.4711    377.29017   -954.18096   -1555.5534     799.7448   -1331.4711            0            0            0            0            0   -575.66255   -27.739361 
   50000    307.08585    424.24491    856.50272    30288.227   -1308.0095    365.23047   -942.77899   -1539.4235    807.26555   -1308.0095            0            0            0            0            0   -575.85146   -27.755439 
   55000    306.15522   -72.756079    857.32148    30259.301   -1328.9932    364.12363   -964.86957   -1559.2357    806.16267   -1328.9932            0            0            0            0            0   -575.92012   -27.781971 
   60000    302.02907    281.61357    855.60659     30319.95    -1316.773    359.21623    -957.5568   -1536.2071    795.33317    -1316.773            0            0            0            0            0   -575.89905   -27.726399 
   65000    312.51209    187.86099    851.41166    30469.337   -1312.1788    371.68414   -940.49468   -1536.1989    799.97605   -1312.1788            0            0            0            0            0   -575.95594    -27.59046 
   70000    304.18607   -330.49088    860.36694    30152.191    -1360.165    361.78163   -998.38338   -1587.7906    803.29552    -1360.165            0            0            0            0            0   -575.66989   -27.880661 
   75000    289.92292   -53.537943    849.84802    30525.397   -1310.0721    344.81786   -965.25425    -1537.773    803.41826   -1310.0721            0            0            0            0            0   -575.71739    -27.53979 
   80000    286.71263   -254.47271    847.16037    30622.241   -1316.9743    340.99972   -975.97454    -1542.811    801.47637   -1316.9743            0            0            0            0            0   -575.63968   -27.452695 
   85000    324.55724   -44.558349    851.68956    30459.395   -1313.4204    386.00995   -927.41044   -1540.9255    803.32055   -1313.4204            0            0            0            0            0   -575.81539   -27.599466 
   90000    307.61272   -257.08954    859.55233    30180.767   -1351.2327     365.8571   -985.37557   -1574.1119    798.72459   -1351.2327            0            0            0            0            0   -575.84539   -27.854263 
   95000    291.06923    389.53375    852.39751    30434.097   -1317.7772    346.18121     -971.596   -1541.6936    799.71888   -1317.7772            0            0            0            0            0   -575.80248   -27.622407 
  100000     286.5653    381.12528    853.35107    30400.089    -1302.206     340.8245    -961.3815   -1529.7665    803.34996    -1302.206            0            0            0            0            0   -575.78945   -27.653308 
  105000    309.95379    93.784902    870.69321    29794.592   -1361.1484    368.64144   -992.50697   -1582.1257    796.67608   -1361.1484            0            0            0            0            0   -575.69882    -28.21529 
  110000    312.20498    383.55839    851.43265    30468.586   -1303.9927    371.31887   -932.67387   -1530.5111    802.20673   -1303.9927            0            0            0            0            0   -575.68839   -27.591141 
  115000    315.55159   -199.10289    849.15339    30550.368   -1323.1677    375.29914   -947.86858   -1543.4101    796.09455   -1323.1677            0            0            0            0            0   -575.85219    -27.51728 
  120000    288.99722   -53.019977     845.8318     30670.34   -1301.4446    343.71688   -957.72771   -1526.0929    800.63083   -1301.4446            0            0            0            0            0   -575.98251   -27.409642 
  125000    332.39611   -465.08285    850.77554    30492.119   -1331.9825    395.33305    -936.6494   -1556.3723    800.19187   -1331.9825            0            0            0            0            0   -575.80197   -27.569847 
  130000    309.05127   -17.298733    857.44959     30254.78    -1338.658    367.56803   -971.08997   -1558.5958     795.8259    -1338.658            0            0            0            0            0   -575.88814   -27.786123 
  135000    333.06996   -75.461696     865.7179    29965.822    -1364.021     396.1345   -967.88654   -1584.6653    796.34943    -1364.021            0            0            0            0            0   -575.70521   -28.054062 
  140000    302.76299    184.49654    842.38513    30795.829   -1277.5698    360.08911   -917.48069   -1506.5425    804.83234   -1277.5698            0            0            0            0            0    -575.8596   -27.297951 
  145000    307.44828   -151.47033    860.33716    30153.235   -1359.0711    365.66152   -993.40956   -1574.3879    791.16614   -1359.0711            0            0            0            0            0   -575.84931   -27.879696 
  150000    283.99815     862.1432    867.71906    29896.714   -1321.7496    337.77127   -983.97831     -1545.37    799.51004   -1321.7496            0            0            0            0            0   -575.88965   -28.118911 
  155000    309.32122    -373.8599    864.48658    30008.504    -1371.035    367.88909   -1003.1459   -1589.9934    794.96984    -1371.035            0            0            0            0            0    -576.0114    -28.01416 
  160000    292.82009    17.582383    836.42156    31015.399   -1275.2514    348.26359   -926.98778   -1503.8833    804.46859   -1275.2514            0            0            0            0            0   -575.83668   -27.104698 
  165000    306.52648   -203.19546    852.74182    30421.809   -1323.5572    364.56519   -958.99201   -1547.3565    799.61201   -1323.5572            0            0            0            0            0   -575.81273   -27.633565 
  170000    311.02684    214.16182     851.6731    30459.984   -1315.6828    369.91766   -945.76513   -1537.4224    797.55795   -1315.6828            0            0            0            0            0   -575.81831   -27.598932 
  175000    316.00659    32.290076    842.71774    30783.674   -1303.5339    375.84029   -927.69356    -1526.659    798.77296   -1303.5339            0            0            0            0            0   -575.64785   -27.308729 
  180000    309.75444    773.51481    859.08522    30197.177   -1308.3248    368.40434   -939.92049   -1535.7722    803.31221   -1308.3248            0            0            0            0            0   -575.86482   -27.839126 
  185000    314.95913   -163.87513    857.00314    30270.541   -1336.1354     374.5945   -961.54091    -1559.205     798.5895   -1336.1354            0            0            0            0            0   -575.51994   -27.771655 
  190000    300.28332   -246.64255    843.97462     30737.83   -1302.5395    357.13992   -945.39958   -1537.1713    810.40037   -1302.5395            0            0            0            0            0   -575.76855   -27.349459 
  195000    284.47828    74.413874    856.51637    30287.744   -1327.3761    338.34231   -989.03374   -1552.3631    800.63905   -1327.3761            0            0            0            0            0   -575.65197   -27.755881 
  200000    313.36065    87.509261    859.51259    30182.162   -1334.1325    372.69337   -961.43916   -1558.0699    799.78269   -1334.1325            0            0            0            0            0   -575.84535   -27.852976 
  205000    327.38352     380.0689    855.20063    30334.342   -1307.5908    389.37136   -918.21946   -1536.6612    804.78135   -1307.5908            0            0            0            0            0   -575.71101   -27.713244 
  210000    298.78507    169.83318    854.04462    30375.402    -1314.941    355.35799   -959.58304   -1543.1389    804.15086    -1314.941            0            0            0            0            0   -575.95296   -27.675783 
  215000    309.84915    99.408392    856.37968    30292.578   -1332.2275    368.51698   -963.71053   -1553.5776    797.41916   -1332.2275            0            0            0            0            0    -576.0691   -27.751452 
  220000    297.40949    151.64075    852.97387    30413.533   -1316.5919    353.72196   -962.86997   -1543.1682    802.39255   -1316.5919            0            0            0            0            0   -575.81623   -27.641085 
  225000    305.45215    187.75077    857.34845    30258.349   -1332.2627    363.28745    -968.9753    -1553.338    796.90945   -1332.2627            0            0            0            0            0   -575.83424   -27.782846 
  230000    298.57222    361.72552    851.24241    30475.395   -1300.3776    355.10484   -945.27279   -1530.5105    806.02174   -1300.3776            0            0            0            0            0   -575.88885   -27.584976 
  235000    297.89591    30.642475    853.40172    30398.285   -1326.0035    354.30048   -971.70305   -1546.4818    796.26492   -1326.0035            0            0            0            0            0   -575.78667   -27.654949 
  240000    284.06832    236.25137    865.54217    29971.906   -1344.0338    337.85473    -1006.179   -1560.5971    792.40316   -1344.0338            0            0            0            0            0   -575.83982   -28.048367 
  245000    295.19703   -69.094518    859.79244    30172.339   -1337.0239    351.09059   -985.93335   -1554.8787    793.71303   -1337.0239            0            0            0            0            0   -575.85831   -27.862044 
  250000    288.57077    308.62856    854.46504    30360.456   -1317.8661    343.20968   -974.65642   -1539.6639    797.73734   -1317.8661            0            0            0            0            0   -575.93955   -27.689407 
  255000    312.04368   -495.08013    841.97776    30810.729   -1308.3427    371.12703   -937.21568   -1530.1305    797.61625   -1308.3427            0            0            0            0            0   -575.82851    -27.28475 
  260000    314.87998   -101.18862     855.6131    30319.719   -1329.8914    374.50037   -955.39105   -1551.6277    797.69971   -1329.8914            0            0            0            0            0   -575.96344    -27.72661 
  265000    311.00013   -97.688114    857.53091    30251.911   -1342.7115    369.88589    -972.8256   -1566.8028    799.86403   -1342.7115            0            0            0            0            0   -575.77272   -27.788758 
  270000    322.82771    -241.8179    851.17274    30477.889   -1326.8538    383.95295   -942.90084   -1558.3921    807.41845   -1326.8538            0            0            0            0            0   -575.88017   -27.582718 
  275000    304.59055     487.3558    861.85863    30100.005    -1331.265     362.2627   -969.00233   -1554.5457     799.0145    -1331.265            0            0            0            0            0    -575.7338      -27.929 
  280000    306.98825    350.21845    868.57113    29867.385   -1357.4536    365.11439    -992.3392   -1573.5645    791.70544   -1357.4536            0            0            0            0            0   -575.59451   -28.146522 
  285000    300.02479   -31.433536    838.75903    30928.965   -1278.8857    356.83245   -922.05322   -1501.3392    798.24966   -1278.8857            0            0            0            0            0    -575.7961   -27.180445 
  290000    288.11428   -276.47787    851.99295    30448.548   -1334.3067    342.66677   -991.63996   -1553.5912    795.16872   -1334.3067            0            0            0            0            0    -575.8843   -27.609298 
  295000    299.71039    612.75091    863.91632    30028.312   -1320.6123    356.45851   -964.15377   -1548.4076    803.64033   -1320.6123            0            0            0            0            0     -575.845   -27.995681 
  300000    310.53854    31.978284    866.00424    29955.914   -1353.2074    369.33691   -983.87048   -1574.5126      797.061   -1353.2074            0            0            0            0            0    -575.7558   -28.063341 
  305000    315.44422   -463.96982    836.57466    31009.723   -1305.4893    375.17145   -930.31788   -1524.3792    794.59092   -1305.4893            0            0            0            0            0   -575.70106   -27.109659 
  310000    302.82482     162.0912    856.22012    30298.224   -1320.7457    360.16265   -960.58306   -1550.7431    805.97504   -1320.7457            0            0            0            0            0    -575.9776   -27.746281 
  315000    307.40592   -555.08104    847.14058    30622.956     -1328.17    365.61115   -962.55882    -1554.605    802.31446     -1328.17            0            0            0            0            0   -575.87946   -27.452054 
  320000    293.99155    100.60693    880.79687    29452.817   -1387.1759    349.65685   -1037.5191   -1613.1999     801.8178   -1387.1759            0            0            0            0            0   -575.79381   -28.542704 
  325000    305.73568    136.23985    861.56349    30110.316    -1339.595    363.62466   -975.97038    -1556.176    792.63566    -1339.595            0            0            0            0            0   -576.05471   -27.919436 
  330000     297.1273   -70.254892    859.79231    30172.343   -1344.6964    353.38634   -991.31006   -1560.2059    791.29349   -1344.6964            0            0            0            0            0     -575.784    -27.86204 
  335000    328.43031    448.33753    873.27396    29706.541   -1360.0554    390.61636   -969.43907   -1580.6581    796.46093   -1360.0554            0            0            0            0            0   -575.85827    -28.29892 
  340000    292.73684   -185.66593    855.62742    30319.211   -1341.3193    348.16457   -993.15471   -1561.8755    796.53365   -1341.3193            0            0            0            0            0    -575.9774   -27.727074 
  345000    297.92598   -474.96876    853.18585    30405.976   -1343.3152    354.33624   -988.97892   -1563.0279    795.32572   -1343.3152            0            0            0            0            0   -575.61293   -27.647954 
  350000    309.05648    840.82944     868.3694    29874.324   -1338.3976    367.57422   -970.82334   -1553.4262    790.78607   -1338.3976            0            0            0            0            0    -575.7574   -28.139985 
  355000    298.93529   -789.28598    846.34701    30651.669   -1339.9783    355.53666   -984.44167   -1561.1488    797.03284   -1339.9783            0            0            0            0            0   -575.86234   -27.426338 
  360000    303.62978   -398.99263    847.99629    30592.055   -1323.4772    361.12001    -962.3572   -1550.5965    802.83403   -1323.4772            0            0            0            0            0   -575.71469   -27.479783 
  365000    283.38485     130.2824     861.2402    30121.618   -1332.1568    337.04184   -995.11492   -1559.1437    802.92008   -1332.1568            0            0            0            0            0    -575.9332    -27.90896 
  370000    311.46404    50.110079    850.34652    30507.503   -1312.3342    370.43764   -941.89657   -1537.9148    801.65838   -1312.3342            0            0            0            0            0   -576.07779   -27.555944 
  375000    294.06298    108.04684    866.75038    29930.127   -1355.7253    349.74181   -1005.9835   -1576.1798    796.38006   -1355.7253            0            0            0            0            0   -575.92554    -28.08752 
  380000    279.65759     252.9044    848.94063    30558.024   -1308.5287    332.60885   -975.91984   -1537.4913    804.73539   -1308.5287            0            0            0            0            0   -575.77281   -27.510385 
  385000    297.03505    183.43199    848.26399      30582.4   -1297.3591    353.27662   -944.08243   -1531.0666    809.33645   -1297.3591            0            0            0            0            0   -575.62886   -27.488459 
  390000    283.76139   -283.02364     861.2198    30122.332   -1344.0527    337.48968    -1006.563   -1574.0543    805.55007   -1344.0527            0            0            0            0            0   -575.54838   -27.908299 
  395000    299.43851    63.325759    848.03422    30590.686   -1306.3247    356.13516   -950.18953   -1530.7209    800.24406   -1306.3247            0            0            0            0            0   -575.84785   -27.481013 
  400000    309.17734   -140.28604    861.70586    30105.341   -1350.4709    367.71797   -982.75289   -1576.1992    801.85374   -1350.4709            0            0            0            0            0   -576.12546    -27.92405 
  405000    282.83422   -42.806887    858.04217    30233.885   -1331.2749    336.38696   -994.88793   -1557.1025    801.76037   -1331.2749            0            0            0            0            0    -575.9328   -27.805326 
  410000    329.37181    -317.0058    856.52741    30287.354   -1349.8431    391.73612   -958.10694   -1566.8908    792.91581   -1349.8431            0            0            0            0            0   -575.86812   -27.756239 
  415000     300.2026    640.23165    872.19363    29743.336   -1347.8226    357.04392   -990.77866   -1570.0626    797.95962   -1347.8226            0            0            0            0            0    -575.7196   -28.263912 
  420000    306.85188   -62.925726    859.87409    30169.474   -1343.7522     364.9522   -978.79998   -1573.9665    806.18843   -1343.7522            0            0            0            0            0    -575.9741    -27.86469 
  425000    283.36611   -554.33089    848.00428    30591.766   -1318.1245    337.01956   -981.10494   -1546.3773    804.02905   -1318.1245            0            0            0            0            0   -575.77627   -27.480043 
  430000      297.115    101.53858    858.80232    30207.124   -1335.7752    353.37171   -982.40353   -1564.7385    804.87554   -1335.7752            0            0            0            0            0   -575.91231   -27.829959 
  435000    320.93454   -96.173859    855.94657    30307.907   -1336.4648    381.70132   -954.76346    -1563.075    802.61821   -1336.4648            0            0            0            0            0   -576.00796   -27.737417 
  440000    323.58023    203.56906    861.87145    30099.557   -1333.1789    384.84794   -948.33098   -1563.7722    806.14606   -1333.1789            0            0            0            0            0   -575.55274   -27.929416 
  445000    298.51094   -518.82453    848.66496    30567.951   -1327.6816    355.03195   -972.64968   -1550.3406    798.56535   -1327.6816            0            0            0            0            0   -575.90637   -27.501452 
  450000    294.86106   -22.874299    850.59956    30498.427   -1305.6171      350.691   -954.92606   -1537.6429    807.83321   -1305.6171            0            0            0            0            0   -575.80732   -27.564144 
  455000    293.94528    97.005496    838.78591    30927.974   -1273.9015    349.60182   -924.29973   -1501.1966    803.22244   -1273.9015            0            0            0            0            0    -575.9274   -27.181316 
  460000    289.63836   -306.12371    870.22234    29810.713   -1382.1724    344.47941    -1037.693   -1604.6005    798.31791   -1382.1724            0            0            0            0            0   -575.88984   -28.200031 
  465000    300.10099   -259.61923      845.127    30695.918    -1315.593    356.92308   -958.66996   -1535.2519    795.30357    -1315.593            0            0            0            0            0    -575.6447   -27.386803 
  470000    284.04668    -123.2118    841.37822    30832.684   -1292.7928    337.82899   -954.96377   -1516.0876    799.25469   -1292.7928            0            0            0            0            0   -575.95984   -27.265321 
  475000     299.2468    460.11316     854.6607    30353.506   -1308.0231    355.90715   -952.11597   -1528.1616    795.99706   -1308.0231            0            0            0            0            0   -575.85859   -27.695748 
  480000    310.76494   -83.506244    849.79752    30527.212   -1316.2197    369.60617    -946.6135   -1533.3141    792.98523   -1316.2197            0            0            0            0            0    -575.8908   -27.538153 
  485000     296.0598   -803.45179    845.30755    30689.361   -1326.5259    352.11672   -974.40914   -1546.3108    795.69001   -1326.5259            0            0            0            0            0   -575.90509   -27.392653 
  490000     298.8023    -167.9863    842.68109    30785.014   -1305.8991    355.37849   -950.52056    -1523.995    793.94617   -1305.8991            0            0            0            0            0   -575.85021   -27.307541 
  495000    297.04348    173.20688    868.82887    29858.525   -1356.9338    353.28664   -1003.6471   -1581.5131    800.35581   -1356.9338            0            0            0            0            0    -575.7765   -28.154875 
  500000    304.56644   -415.05312    855.17297    30335.323   -1350.0936    362.23402   -987.85963   -1564.9291    790.70121   -1350.0936            0            0            0            0            0   -575.86573   -27.712348 
  505000    329.10621    72.969828    856.54799    30286.626    -1334.051    391.42024   -942.63071   -1553.0908    794.90837    -1334.051            0            0            0            0            0   -575.86848   -27.756906 
  510000    307.73045   -321.14408      847.904    30595.384   -1332.2779    365.99712   -966.28078   -1551.8236    795.44132   -1332.2779            0            0            0            0            0    -575.8956   -27.476793 
  515000    319.57286    143.89747    864.52391    30007.208   -1356.2311    380.08181   -976.14928   -1570.9441    790.59912   -1356.2311            0            0            0            0            0   -575.88607    -28.01537 
  520000     308.5304    179.39499    860.83325    30135.858   -1334.4409    366.94854   -967.49232   -1565.4506    806.94077   -1334.4409            0            0            0            0            0   -575.93107   -27.895772 
  525000    319.77685   -67.317334    840.63608    30859.904   -1290.5793    380.32443    -910.2549   -1521.2481    806.62767   -1290.5793            0            0            0            0            0   -575.95889   -27.241272 
  530000    320.41336   -85.941183    856.85139    30275.902   -1340.8725    381.08146   -959.79104   -1561.2017    796.09673   -1340.8725            0            0            0            0            0   -575.76755   -27.766738 
  535000    319.49037    538.39757    847.52276    30609.147   -1284.0767     379.9837   -904.09304   -1514.6305    806.31864   -1284.0767            0            0            0            0            0   -575.76484   -27.464439 
  540000    307.50546   -65.228091     836.0754     31028.24   -1283.1686    365.72953   -917.43912   -1508.1667    800.87804   -1283.1686            0            0            0            0            0   -575.87998   -27.093481 
  545000    321.51242    -176.5593    841.06679      30844.1   -1294.6172    382.38861   -912.22859   -1523.0623    804.29584   -1294.6172            0            0            0            0            0   -575.85072   -27.255229 
  550000    297.81383    16.965132    863.13585    30055.464   -1355.4947    354.20286   -1001.2919   -1580.7916    801.07016   -1355.4947            0            0            0            0            0    -575.7733   -27.970389 
  555000    302.72261   -414.40206    840.89026    30850.576   -1305.0649    360.04108   -945.02382   -1534.4756    805.44519   -1305.0649            0            0            0            0            0   -576.03444   -27.249509 
  560000    290.83307   -588.64672    859.93113    30167.472    -1354.186    345.90033   -1008.2857   -1581.5818    803.37579    -1354.186            0            0            0            0            0   -575.97999   -27.866539 
  565000    315.78166    182.03007    837.79452    30964.572   -1273.6547    375.57277    -898.0819   -1499.1041    801.41508   -1273.6547            0            0            0            0            0    -575.9657    -27.14919 
  570000    293.80566   -374.43008    837.70945    30967.716   -1299.7319    349.43577   -950.29618   -1524.5189    800.80324   -1299.7319            0            0            0            0            0   -576.01629   -27.146433 
  575000    297.56784   -449.95835     854.3622    30364.111   -1349.7144    353.91029   -995.80412   -1568.5068    794.28288   -1349.7144            0            0            0            0            0   -575.49053   -27.686074 
  580000    301.61414    289.20308    857.77671    30243.242   -1339.0939    358.72273   -980.37119   -1549.5147    786.28679   -1339.0939            0            0            0            0            0   -575.86604   -27.796723 
  585000    317.86548    27.936933    863.40113     30046.23   -1352.0946    378.05115   -974.04347   -1569.4113    793.32971   -1352.0946            0            0            0            0            0   -576.01306   -27.978986 
  590000    304.76431    271.58358    852.96432    30413.873   -1308.8464    362.46937     -946.377   -1533.0167    800.10356   -1308.8464            0            0            0            0            0   -575.93324   -27.640775 
  595000    306.03019    254.96617    860.53276    30146.381   -1342.9836    363.97493   -979.00867   -1558.2707     790.8758   -1342.9836            0            0            0            0            0   -575.58872   -27.886035 
  600000     312.0235   -83.630134    862.64785    30072.466   -1348.0905    371.10303   -976.98748    -1573.145    800.84555   -1348.0905            0            0            0            0            0    -575.7911   -27.954575 
  605000    292.28439    183.00382    842.27894    30799.712   -1292.4138    347.62646   -944.78738   -1515.8724    799.33995   -1292.4138            0            0            0            0            0   -575.88138    -27.29451 
  610000    324.83769    374.88083    873.91931    29684.604   -1364.5277    386.34351   -978.18424   -1585.4982    796.81019   -1364.5277            0            0            0            0            0   -575.83977   -28.319833 
  615000    305.36329    221.48005    855.37039    30328.322   -1319.2217    363.18175   -956.03995   -1541.6703    798.21303   -1319.2217            0            0            0            0            0   -575.76441   -27.718745 
  620000    300.84323    -180.4434    848.34159    30579.603   -1317.2233    357.80586   -959.41749   -1541.3074    800.05235   -1317.2233            0            0            0            0            0    -575.9683   -27.490973 
  625000    283.23846   -330.24313    847.30905    30616.867   -1331.8996    336.86774   -995.03187    -1547.914    791.79064   -1331.8996            0            0            0            0            0   -575.77623   -27.457513 
  630000    295.94906     118.7321    854.38697     30363.23   -1320.8165    351.98501    -968.8315   -1543.4969    798.33175   -1320.8165            0            0            0            0            0   -575.65139   -27.686877 
  635000    293.09316   -149.46075    857.68542    30246.461   -1342.0943    348.58836    -993.5059   -1567.6251    801.45486   -1342.0943            0            0            0            0            0   -575.92403   -27.793765 
  640000    304.73084    41.393243    862.00317    30094.957   -1347.5939    362.42955   -985.16433   -1563.0133     791.2934   -1347.5939            0            0            0            0            0   -575.87404   -27.933684 
  645000     295.4158   -270.53507    846.15015      30658.8   -1323.8981    351.35077   -972.54731   -1550.2704    802.33404   -1323.8981            0            0            0            0            0   -575.96175   -27.419958 
  650000    293.94298   -195.44133    845.60246    30678.658   -1302.0836    349.59908   -952.48453   -1531.1122     805.0017   -1302.0836            0            0            0            0            0   -575.97307    -27.40221 
  655000    298.62291   -200.13623    857.35255    30258.204   -1339.1868    355.16513   -984.02163   -1567.6635    804.18816   -1339.1868            0            0            0            0            0   -575.71144   -27.782978 
  660000    313.52591    316.72947    854.82908    30347.527   -1320.5541    372.88991   -947.66418   -1540.9093    796.21595   -1320.5541            0            0            0            0            0   -575.86075   -27.701204 
  665000    311.50444    229.35993     856.7159     30280.69   -1321.3834    370.48569   -950.89775   -1548.5384      803.007   -1321.3834            0            0            0            0            0   -575.85201   -27.762347 
  670000    311.78225    451.22917    862.28107    30085.258   -1332.7122    370.81611   -961.89606    -1562.979    806.11986   -1332.7122            0            0            0            0            0   -575.85302    -27.94269 
  675000    307.06958      5.19532    858.73064    30209.646    -1336.132    365.21112   -970.92091   -1553.4144    793.21533    -1336.132            0            0            0            0            0   -575.93299   -27.827636 
  680000    309.02001   -578.28269    843.88775    30740.995   -1325.9215    367.53085   -958.39069   -1548.2939    798.18307   -1325.9215            0            0            0            0            0   -575.81076   -27.346644 
  685000    312.70603    175.90397    863.65008    30037.569   -1334.3391     371.9148   -962.42431   -1562.2733    803.67426   -1334.3391            0            0            0            0            0   -575.74009   -27.987053 
  690000    293.82163   -147.94437    861.97491    30095.944   -1353.0056    349.45476   -1003.5508   -1576.6866    799.38224   -1353.0056            0            0            0            0            0   -575.70122   -27.932768 
  695000    292.84015    295.29355    854.92523    30344.114   -1305.3201    348.28744   -957.03269   -1535.7882     806.2314   -1305.3201            0            0            0            0            0   -575.76334    -27.70432 
  700000     325.7117    -697.6474    838.21003    30949.222   -1305.6298    387.38299    -918.2468   -1530.5032    800.59843   -1305.6298            0            0            0            0            0   -575.72503   -27.162655 
  705000    306.75568   -250.45897    858.49931    30217.786   -1349.7038    364.83779   -984.86596   -1574.5056    800.54074   -1349.7038            0            0            0            0            0   -575.73887    -27.82014 
  710000    294.93714    146.85694    835.79225    31038.752   -1261.3838    350.78149   -910.60232   -1490.6619    805.02237   -1261.3838            0            0            0            0            0    -575.7443   -27.084305 
  715000    276.69098   -14.583228    855.72029    30315.921   -1334.2054    329.08053   -1005.1248   -1558.4266    800.13844   -1334.2054            0            0            0            0            0   -575.91717   -27.730084 
  720000     307.8197   -84.298297     860.9362    30132.255   -1344.8041    366.10327   -978.70083   -1568.8786    799.79988   -1344.8041            0            0            0            0            0   -575.72539   -27.899108 
  725000    310.00722    17.314512    865.14576    29985.639   -1346.2099    368.70498   -977.50487   -1569.3851    798.90288   -1346.2099            0            0            0            0            0   -575.72768   -28.035522 
  730000    320.52421   -386.72862    839.11372    30915.891   -1291.3815    381.21329   -910.16824   -1515.9218    800.09777   -1291.3815            0            0            0            0            0   -575.55746   -27.191939 
  735000    306.89195    307.67738     860.3855    30151.541   -1319.8531    364.99986   -954.85321   -1551.1864    807.39979   -1319.8531            0            0            0            0            0   -576.06645   -27.881263 
  740000    301.75023    197.11114    847.84897     30597.37   -1293.1532    358.88458   -934.26862    -1524.488    807.17657   -1293.1532            0            0            0            0            0   -575.84179    -27.47501 
  745000    279.92331    379.36518    853.17746    30406.275   -1309.7551    332.92489   -976.83026   -1537.2313    803.45594   -1309.7551            0            0            0            0            0   -575.97977   -27.647682 
  750000     309.8542   -413.50482    848.68881    30567.092   -1324.0032    368.52299   -955.48021    -1552.392    804.04031   -1324.0032            0            0            0            0            0   -575.65153   -27.502225 
  755000    324.44833    247.96691    844.78817    30708.229   -1293.2505    385.88042   -907.37009   -1515.6693    798.21452   -1293.2505            0            0            0            0            0   -575.79575   -27.375823 
  760000    309.03826   -84.551196    844.52026    30717.971   -1301.0195    367.55256   -933.46695   -1530.6261     805.3192   -1301.0195            0            0            0            0            0   -575.71265   -27.367141 
  765000    308.18394    149.72905    852.48955    30430.811   -1311.5304    366.53647   -944.99392   -1539.3374    803.68672   -1311.5304            0            0            0            0            0    -575.8797    -27.62539 
  770000    310.63855   -35.102443    843.52972    30754.042   -1310.6826    369.45585   -941.22677   -1529.2782    794.43107   -1310.6826            0            0            0            0            0   -575.83549   -27.335042 
  775000    299.50331    158.57658    843.73068    30746.717   -1291.5067    356.21222    -935.2945   -1518.4823    802.81753   -1291.5067            0            0            0            0            0   -575.84197   -27.341554 
  780000    301.89497    187.97306     872.8375    29721.395   -1369.8406    359.05674   -1010.7839   -1594.8359    800.70579   -1369.8406            0            0            0            0            0   -575.71047   -28.284777 
  785000    303.08925   -300.07149    831.67529      31192.4   -1272.6554    360.47715   -912.17824   -1497.4144    800.55451   -1272.6554            0            0            0            0            0   -575.79552   -26.950893 
  790000    309.20323   -139.46448    856.54879    30286.598   -1330.3432    367.74876   -962.59443   -1559.1678    804.70987   -1330.3432            0            0            0            0            0   -575.88524   -27.756932 
  795000    303.71462   -110.70915     856.2889     30295.79   -1324.0426    361.22092   -962.82169   -1552.6525    804.37942   -1324.0426            0            0            0            0            0   -575.76954    -27.74851 
  800000     307.1829    246.50496    863.78727    30032.798   -1349.3485    365.34589   -984.00257   -1569.3118    795.82661   -1349.3485            0            0            0            0            0   -575.86325   -27.991499 
  805000    310.44001   -286.34131    858.66722    30211.877   -1346.4072    369.21971   -977.18749   -1570.6669    800.15947   -1346.4072            0            0            0            0            0   -575.89979   -27.825581 
  810000    291.88668    195.61631      862.724    30069.812   -1341.7071    347.15344   -994.55367   -1558.3751    792.44838   -1341.7071            0            0            0            0            0   -575.78039   -27.957043 
  815000    287.10298    745.55403    878.64319    29525.009   -1358.5079    341.46398   -1017.0439   -1577.8463     795.2501   -1358.5079            0            0            0            0            0   -575.91171   -28.472913 
  820000    297.53347    376.77713    850.86412    30488.944    -1297.501    353.86941   -943.63162    -1525.047    803.22004    -1297.501            0            0            0            0            0   -575.67408   -27.572717 
  825000       292.74   -278.53173    859.41862    30185.463   -1347.5147    348.16833   -999.34635   -1569.9596    798.53161   -1347.5147            0            0            0            0            0   -576.08671    -27.84993 
  830000    309.79244    345.46619    851.84875    30453.703   -1299.8345    368.44953   -931.38494   -1530.4069    806.52102   -1299.8345            0            0            0            0            0   -575.94856   -27.604625 
  835000    337.31302   -234.99951    837.62759    30970.743    -1290.495    401.18095   -889.31407   -1519.1207     804.3641    -1290.495            0            0            0            0            0   -575.73847    -27.14378 
  840000    302.84993    82.401348    852.33439    30436.351   -1328.5233    360.19251   -968.33083   -1552.6142    799.75935   -1328.5233            0            0            0            0            0   -575.66847   -27.620362 
  845000    298.30589   -325.45384    853.64791    30389.518     -1341.03    354.78808   -986.24195   -1559.6844    794.40452     -1341.03            0            0            0            0            0   -575.75012   -27.662928 
  850000    288.58546   -345.23715    858.62845    30213.241   -1348.3035    343.22715   -1005.0764   -1572.3495    799.90424   -1348.3035            0            0            0            0            0   -575.85826   -27.824324 
  855000     309.4064   -416.09076    834.45813    31088.377   -1286.9864     367.9904     -918.996   -1518.1452    806.95815   -1286.9864            0            0            0            0            0   -575.79931   -27.041072 
  860000    307.27136    148.36828    866.46769    29939.891   -1356.9386    365.45111    -991.4875   -1575.3173    794.25822   -1356.9386            0            0            0            0            0    -575.8795   -28.078359 
  865000    297.72609    306.20863    857.00248    30270.564   -1320.8864     354.0985   -966.78785    -1549.294    804.38763   -1320.8864            0            0            0            0            0      -575.98   -27.771634 
  870000    284.31367   -337.89628    846.51602    30645.549   -1313.4271    338.14653   -975.28054   -1537.2334    799.64919   -1313.4271            0            0            0            0            0   -575.84284   -27.431815 
  875000     296.6304   -558.23741    856.92733    30273.219   -1353.1794    352.79535    -1000.384   -1576.5016    798.91495   -1353.1794            0            0            0            0            0   -575.59273   -27.769199 
  880000     306.6792   -94.187184    848.29963    30581.115   -1318.1572    364.74683   -953.41036   -1541.1937    798.68616   -1318.1572            0            0            0            0            0   -575.64964   -27.489613 
  885000    310.43993   -163.08361    833.30783    31131.291   -1270.6077    369.21962   -901.38809   -1502.7587    807.95478   -1270.6077            0            0            0            0            0   -575.80375   -27.003796 
  890000    314.73503   -407.91074    844.26837    30727.136   -1313.1917    374.32797   -938.86375   -1540.3073    802.78231   -1313.1917            0            0            0            0            0   -575.66669   -27.358978 
  895000    300.55379    69.749376    861.69831    30105.605   -1347.0728     357.4616   -989.61119   -1560.9195    789.79368   -1347.0728            0            0            0            0            0   -575.94697   -27.923805 
  900000    290.73103   -125.45586    856.98416    30271.211   -1329.8908    345.77898   -984.11186   -1557.3899    803.36802   -1329.8908            0            0            0            0            0   -575.86892    -27.77104 
  905000    320.25856    725.06513    871.72662    29759.271   -1331.8731    380.89734   -950.97572   -1563.6531    807.56124   -1331.8731            0            0            0            0            0   -575.78118   -28.248778 
  910000    290.00472    5.8017994    860.24491    30156.469   -1336.7528    344.91515   -991.83765   -1564.1363    803.38108   -1336.7528            0            0            0            0            0   -575.99753   -27.876707 
  915000    290.70721   -407.30098    852.61067    30426.488   -1345.7891    345.75065   -1000.0384   -1566.1212     796.1935   -1345.7891            0            0            0            0            0    -575.8614   -27.629315 
  920000    317.49186   -164.93914    839.31148    30908.607   -1299.9717    377.60678   -922.36488   -1524.0371    799.89203   -1299.9717            0            0            0            0            0   -575.82659   -27.198348 
  925000    310.43572    266.85095    864.68003     30001.79   -1345.4168    369.21462   -976.20222   -1567.7303    798.32876   -1345.4168            0            0            0            0            0   -576.01532   -28.020429 
  930000    320.01174    1.0861901    837.08578    30990.789   -1274.5917    380.60379   -893.98787   -1508.1403    809.21559   -1274.5917            0            0            0            0            0   -575.66693   -27.126223 
  935000    312.43953    6.1966754    854.56082    30357.054    -1321.011    371.59783   -949.41319   -1548.6061    803.37688    -1321.011            0            0            0            0            0    -575.7818   -27.692511 
  940000    310.08244   -185.05096    844.47914    30719.466   -1301.0648    368.79444   -932.27032   -1528.4244    803.12088   -1301.0648            0            0            0            0            0   -575.76127   -27.365808 
  945000     311.0331   -416.80088     852.1682    30442.287   -1345.1254    369.92511   -975.20033   -1567.9819    798.68355   -1345.1254            0            0            0            0            0   -575.82713   -27.614977 
  950000     299.0774    152.23594    839.97296    30884.266   -1280.7694    355.70567    -925.0637   -1513.3281    808.31295   -1280.7694            0            0            0            0            0   -575.75425   -27.219783 
  955000    326.97839    157.24944    832.50265    31161.401   -1266.3382    388.88953   -877.44864   -1493.6011    803.22104   -1266.3382            0            0            0            0            0   -575.95808   -26.977704 
  960000    338.30535    195.53961     854.1479    30371.729   -1317.2286    402.36117   -914.86747   -1544.6869    803.39885   -1317.2286            0            0            0            0            0   -575.94055    -27.67913 
  965000    314.91699   -25.907852    839.28613     30909.54   -1277.7653    374.54439   -903.22089   -1509.8349    807.81878   -1277.7653            0            0            0            0            0   -575.74917   -27.197526 
  970000    278.14801   -115.40438      852.144    30443.151   -1328.0285    330.81345   -997.21502   -1545.4351    793.16586   -1328.0285            0            0            0            0            0   -575.75923   -27.614192 
  975000     317.0043   -340.34007     840.3938    30868.801   -1303.5213    377.02692   -926.49437   -1531.3129    803.62637   -1303.5213            0            0            0            0            0   -575.83476   -27.233421 
  980000    317.80018    145.87669    845.14158    30695.388   -1291.3378    377.97348   -913.36429   -1521.6625    806.12825   -1291.3378            0            0            0            0            0   -575.80349   -27.387275 
  985000    300.73086     465.4901    860.84601    30135.411   -1323.0614    357.67221   -965.38915   -1553.4293    806.30576   -1323.0614            0            0            0            0            0   -575.93778   -27.896186 
  990000     288.9199    389.62904    856.79134    30278.024   -1324.2006    343.62492    -980.5757   -1545.1474    796.66069   -1324.2006            0            0            0            0            0   -575.71388   -27.764792 
  995000     297.6468    425.37492    871.31617    29773.289   -1356.7273     354.0042   -1002.7231   -1577.9573    797.14864   -1356.7273            0            0            0            0            0   -575.91859   -28.235477 
 1000000    290.95282   -509.18445    836.57993    31009.528   -1323.2475    346.04276   -977.20469   -1543.2841    795.94999   -1323.2475            0            0            0            0            0    -575.9133    -27.10983 
 1005000    318.40848    24.449657    858.55774     30215.73   -1343.4105    378.69696   -964.71358   -1563.1976    795.75897   -1343.4105            0            0            0            0            0   -575.97191   -27.822033 
 1010000     333.5852    234.65155    846.43342     30648.54   -1300.4408    396.74729   -903.69348   -1524.4515    799.66372   -1300.4408            0            0            0            0            0   -575.65294   -27.429138 
 1015000     302.4563    566.24797    849.56304    30535.637   -1298.1484    359.72435   -938.42402   -1520.8709    798.70209   -1298.1484            0            0            0            0            0   -575.97952   -27.530555 
 1020000    288.44294   -209.48014     855.8986    30309.605   -1335.7981    343.05766   -992.74041   -1567.2999    807.21629   -1335.7981            0            0            0            0            0   -575.71441   -27.735862 
 1025000    310.53615    36.848792    863.42506    30045.397   -1342.5034    369.33406   -973.16938   -1570.5753    804.02422   -1342.5034            0            0            0            0            0   -575.95235   -27.979761 
 1030000    285.56598    95.589704      859.986    30165.548   -1339.3236    339.63596   -999.68767   -1561.5566    797.93165   -1339.3236            0            0            0            0            0   -575.69866   -27.868317 
 1035000    308.56856    367.27684    859.88231    30169.185   -1332.5561    366.99392   -965.56216   -1557.0693    800.37106   -1332.5561            0            0            0            0            0   -575.85781   -27.864957 
 1040000    303.77411   -5.1551152    867.79709    29894.026   -1355.1587    361.29167   -993.86705   -1579.4553    799.89807   -1355.1587            0            0            0            0            0   -575.60149   -28.121439 
 1045000    303.14643    515.90266    875.17441    29642.033   -1369.9209    360.54514   -1009.3757   -1587.5072    793.20409   -1369.9209            0            0            0            0            0   -575.61779   -28.360505 
 1050000    307.31775    42.487541    868.81614    29858.963   -1367.3614    365.50628   -1001.8551   -1586.1882    794.48543   -1367.3614            0            0            0            0            0   -575.65862   -28.154462 
 1055000    281.58107    205.58032     855.0235    30340.627   -1313.9086    334.89653   -979.01202   -1536.2908    798.23859   -1313.9086            0            0            0            0            0   -575.85636   -27.707504 
 1060000    297.45214   -105.96336    862.79649    30067.286    -1348.835    353.77269   -995.06229   -1571.8355     798.9242    -1348.835            0            0            0            0            0   -575.92363   -27.959392 
 1065000    300.65356    -224.9707    841.25463    30837.213   -1293.0096    357.58027   -935.42931   -1521.1278    803.80241   -1293.0096            0            0            0            0            0   -575.68414   -27.261317 
 1070000    310.79244     696.8242    861.27134    30120.529   -1323.2974    369.63888   -953.65848   -1548.4213     800.6972   -1323.2974            0            0            0            0            0   -575.57327   -27.909969 
 1075000    292.00573   -256.97999    834.59925     31083.12   -1279.4561    347.29503   -932.16107   -1511.8234    808.11604   -1279.4561            0            0            0            0            0   -575.74874   -27.045645 
 1080000    314.77853     317.1575    855.95177    30307.722   -1320.2089    374.37971   -945.82921   -1547.6434    803.25232   -1320.2089            0            0            0            0            0   -575.81784   -27.737585 
 1085000    291.87612    289.46592    856.14595    30300.849   -1307.2479    347.14088   -960.10702   -1540.8468    809.30254   -1307.2479            0            0            0            0            0   -575.70367   -27.743878 
 1090000    305.04049    520.99522    875.48528    29631.508   -1375.0164    362.79783   -1012.2186   -1588.7544    789.53243   -1375.0164            0            0            0            0            0   -575.79444   -28.370579 
 1095000    292.38463   -255.52285    851.32781    30472.338   -1326.7094    347.74567    -978.9637   -1553.5735    802.57052   -1326.7094            0            0            0            0            0   -575.70639   -27.587743 
 1100000    286.72701    165.36479    857.91967    30238.202   -1330.2913    341.01683   -989.27443   -1551.1923    796.46579   -1330.2913            0            0            0            0            0   -575.56474   -27.801356 
 1105000    295.01398    129.51178    878.10773    29543.014   -1382.4863    350.87287   -1031.6134   -1606.2632    799.82317   -1382.4863            0            0            0            0            0   -576.04629   -28.455561 
 1110000    318.13072   -314.06846    828.18435    31323.882   -1257.9694    378.36661   -879.60284   -1492.4854    810.33892   -1257.9694            0            0            0            0            0   -575.82296   -26.837767 
 1115000    294.92697   -444.43634    838.95594    30921.705   -1294.7519    350.76938   -943.98248   -1519.9864    801.28329   -1294.7519            0            0            0            0            0   -576.04877   -27.186826 
 1120000    302.86386   -278.24077    855.35106    30329.007   -1343.6082    360.20907   -983.39914   -1562.5002     794.7331   -1343.6082            0            0            0            0            0   -575.84113   -27.718119 
 1125000    303.52971   -257.05341    859.73642    30174.305   -1343.9489      361.001   -982.94787     -1565.38     797.2559   -1343.9489            0            0            0            0            0   -575.82475   -27.860229 
 1130000    302.81715    -519.2918    837.34861    30981.061   -1306.6906    360.15352   -946.53709    -1525.745     794.6645   -1306.6906            0            0            0            0            0   -575.61009    -27.13474 
 1135000    304.71051   -50.481127    854.38722    30363.222   -1320.0516    362.40538   -957.64622   -1551.4828    807.36858   -1320.0516            0            0            0            0            0   -575.93738   -27.686885 
 1140000    315.90907   -277.77207    851.06285    30481.825    -1331.087     375.7243   -955.36274   -1553.3927    798.02328    -1331.087            0            0            0            0            0   -575.71758   -27.579157 
 1145000    288.02227   -196.03509    848.04801    30590.189   -1315.1029    342.55733   -972.54561    -1540.813    801.47617   -1315.1029            0            0            0            0            0   -575.76613    -27.48146 
 1150000    308.43317    145.06924       838.65    30932.986   -1276.5475    366.83289   -909.71463   -1499.3257    798.62674   -1276.5475            0            0            0            0            0   -575.84857   -27.176912 
 1155000    304.43241    25.215602    843.91903    30739.855   -1302.0396    362.07461   -939.96502   -1527.2759       800.77   -1302.0396            0            0            0            0            0   -575.53369   -27.347658 
 1160000    295.03087    155.03835    854.53653    30357.916   -1328.1487    350.89296   -977.25578   -1549.4671    796.99771   -1328.1487            0            0            0            0            0   -575.67933   -27.691724 
 1165000    303.92187    373.14581    858.79648     30207.33    -1323.328    361.46741   -961.86057   -1551.8751    804.38659    -1323.328            0            0            0            0            0   -575.83947    -27.82977 
 1170000    314.70948   -389.76445    833.93201     31107.99   -1280.2252    374.29758   -905.92758   -1513.2918    808.93146   -1280.2252            0            0            0            0            0   -575.86484   -27.024023 
 1175000    318.69069    -215.0367    867.28857    29911.554   -1366.9542     379.0326   -987.92161   -1590.1468    798.98517   -1366.9542            0            0            0            0            0   -575.79253   -28.104961 
 1180000    298.23017     335.2125    862.87297    30064.621   -1330.6952    354.69803   -975.99715   -1553.7098    798.75867   -1330.6952            0            0            0            0            0   -575.74404    -27.96187 
 1185000     309.3408    37.118354    863.68557    30036.334   -1357.8481    367.91237   -989.93573   -1575.2514    793.35477   -1357.8481            0            0            0            0            0   -575.95148   -27.988203 
 1190000    299.99743   -382.02811    866.74528    29930.303   -1372.1511     356.7999   -1015.3512   -1597.5964    801.06194   -1372.1511            0            0            0            0            0   -575.61666   -28.087355 
 1195000    303.54217   -93.534498    858.79053    30207.539    -1333.851    361.01582   -972.83517   -1562.6172    804.70808    -1333.851            0            0            0            0            0   -575.94184   -27.829577 
 1200000    314.45953    44.213288    858.00664    30235.138   -1334.4398    374.00031   -960.43951     -1557.79    799.20292   -1334.4398            0            0            0            0            0   -575.85272   -27.804174 
 1205000    289.34404   -550.41675    835.36639    31054.576   -1292.5389    344.12937   -948.40954   -1519.2019     802.4068   -1292.5389            0            0            0            0            0   -575.74379   -27.070505 
 1210000    315.91074    300.52232    846.73926     30637.47   -1289.7117    375.72629   -913.98542   -1519.4119    805.55487   -1289.7117            0            0            0            0            0   -575.85466   -27.439049 
 1215000    282.32355   -211.47589    851.26095    30474.731   -1326.1763     335.7796   -990.39671   -1548.5501    798.07686   -1326.1763            0            0            0            0            0   -575.70304   -27.585577 
 1220000    310.37589   -279.45398    852.34694    30435.903   -1328.6203    369.14346    -959.4768   -1554.4944    801.73754   -1328.6203            0            0            0            0            0   -575.86341   -27.620769 
 1225000    324.18917    89.395298    842.34639    30797.246   -1286.7724    385.57219   -901.20017   -1511.7722    800.80416   -1286.7724            0            0            0            0            0   -575.80429   -27.296695 
 1230000    310.51215    233.56588    855.42404     30326.42   -1328.4619    369.30551   -959.15642   -1551.4767    798.75374   -1328.4619            0            0            0            0            0   -575.73897   -27.720484 
 1235000    314.53714   -48.912535    857.10159    30267.064   -1329.9146    374.09262   -955.82198   -1552.9868    798.97354   -1329.9146            0            0            0            0            0   -575.90132   -27.774846 
 1240000    274.65903    -83.32869    857.25847    30261.525   -1337.1442    326.66385   -1010.4804   -1561.6576    800.44494   -1337.1442            0            0            0            0            0   -575.93154    -27.77993 
 1245000    321.30911    235.88922    852.90518    30415.982   -1305.1844    382.14681   -923.03764   -1533.7645    804.42275   -1305.1844            0            0            0            0            0   -575.84274   -27.638859 
 1250000    299.44297    -165.1561    850.94523    30486.038   -1328.0672    356.14046   -971.92672   -1551.6805    799.30782   -1328.0672            0            0            0            0            0   -575.69451   -27.575346 
 1255000    301.31601   -250.76846    835.78121    31039.162    -1283.582    358.36815   -925.21388   -1513.7034    805.90719    -1283.582            0            0            0            0            0   -575.78578   -27.083947 
 1260000    307.31421   -284.25073    853.26164    30403.276   -1331.7176    365.50206   -966.21556   -1555.5291    799.63769   -1331.7176            0            0            0            0            0   -575.82619    -27.65041 
 1265000    308.33583    143.08313    852.97718    30413.415   -1323.7325    366.71712   -957.01538   -1553.0377    804.93518   -1323.7325            0            0            0            0            0      -575.63   -27.641192 
 1270000    312.64021    -293.8314    842.11372    30805.754   -1311.7872    371.83651   -939.95074   -1536.3812     800.4307   -1311.7872            0            0            0            0            0    -575.8368   -27.289156 
 1275000    299.12992    337.53051    862.46025    30079.008   -1331.7764    355.76814   -976.00825   -1558.8812    803.16344   -1331.7764            0            0            0            0            0   -576.05866   -27.948496 
 1280000    305.67782    293.31309    857.61556    30248.925   -1332.0308    363.55584   -968.47492   -1552.5977     796.3615   -1332.0308            0            0            0            0            0   -575.79453   -27.791501 
 1285000    286.34802   -524.95766    855.36461    30328.527   -1344.9951    340.56608    -1004.429   -1565.2781    796.31078   -1344.9951            0            0            0            0            0   -576.02779   -27.718558 
 1290000    321.35031   -271.76051    850.33216    30508.018   -1328.5675    382.19581    -946.3717   -1555.5165    802.88309   -1328.5675            0            0            0            0            0   -575.93407   -27.555479 
 1295000    307.57471    86.056177    853.97759    30377.786    -1316.275     365.8119    -950.4631   -1542.6999     802.1103    -1316.275            0            0            0            0            0   -575.68544   -27.673611 
 1300000      302.169    623.19201    868.90946    29855.756   -1336.0936    359.38265   -976.71093    -1561.187    800.90068   -1336.0936            0            0            0            0            0   -575.80723   -28.157486 
 1305000    307.58163     81.09168    851.71768    30458.389   -1314.7363    365.82013   -948.91614    -1538.176    799.31415   -1314.7363            0            0            0            0            0   -575.87443   -27.600377 
 1310000    280.28363    79.476844    849.19496    30548.873   -1306.1875    333.35344   -972.83403   -1533.2705     803.0037   -1306.1875            0            0            0            0            0   -575.92065   -27.518627 
 1315000    286.42567    485.58874    858.31725    30224.196   -1312.1649    340.65842   -971.50646   -1533.3887    797.21928   -1312.1649            0            0            0            0            0   -575.99547    -27.81424 
 1320000    294.99788   -183.13487    847.22663    30619.845   -1303.2732    350.85373   -952.41945   -1534.6583    807.24261   -1303.2732            0            0            0            0            0   -575.85753   -27.454842 
 1325000     289.1873   -217.06366    837.39386    30979.387   -1276.6141    343.94296   -932.67112   -1504.6635    803.94431   -1276.6141            0            0            0            0            0   -575.89492   -27.136206 
 1330000    317.12165   -394.02257    845.57866    30679.521   -1316.6198    377.16649   -939.45332   -1540.8271    799.89101   -1316.6198            0            0            0            0            0   -575.68374   -27.401439 
 1335000     294.1044    181.05817    844.16761    30730.803   -1278.8715    349.79108   -929.08047   -1507.6215    804.50369   -1278.8715            0            0            0            0            0   -575.75374   -27.355713 
 1340000    308.42105   -408.72177    852.77212    30420.728   -1338.4634    366.81848   -971.64494   -1564.1644     801.5209   -1338.4634            0            0            0            0            0   -575.81989   -27.634547 
 1345000    314.96526    357.51084    864.65122     30002.79   -1333.8501     374.6018   -959.24831   -1558.8591    800.88966   -1333.8501            0            0            0            0            0   -575.88067   -28.019496 
 1350000    316.07711   -276.54301    857.19718    30263.689   -1343.4008    375.92417   -967.47658   -1566.3228     798.6584   -1343.4008            0            0            0            0            0   -575.73636   -27.777943 
 1355000    311.56709   -122.76691     861.1241    30125.679   -1357.5933     370.5602   -987.03314   -1573.3011    791.61589   -1357.5933            0            0            0            0            0    -575.9081   -27.905197 
 1360000    314.75573    482.20729    860.08692    30162.008    -1323.293    374.35259   -948.94039   -1545.2898    797.91404    -1323.293            0            0            0            0            0   -575.91717   -27.871587 
 1365000    315.84884    -224.7584     856.8052    30277.534   -1336.8238    375.65267    -961.1711   -1564.4704    803.58661   -1336.8238            0            0            0            0            0   -575.94002   -27.765241 
 1370000    302.33543    256.48234    864.93842    29992.827   -1336.7941    359.58059   -977.21356   -1568.4918    807.49694   -1336.7941            0            0            0            0            0   -575.79926   -28.028802 
 1375000    320.69891    8.5801347    851.01985    30483.365   -1323.5228    381.42107   -942.10169   -1550.0415    802.36544   -1323.5228            0            0            0            0            0   -575.84674   -27.577764 
 1380000    301.78169   -331.94639    839.93292    30885.739   -1296.7388    358.92201   -937.81677   -1524.6906    803.78751   -1296.7388            0            0            0            0            0   -575.83572   -27.218486 
 1385000    299.63445    249.23769       856.74    30279.838   -1321.6289     356.3682   -965.26067   -1551.5728    805.77768   -1321.6289            0            0            0            0            0   -575.83376   -27.763128 
 1390000    277.96474   -420.61225    868.84193    29858.076    -1380.294    330.59548   -1049.6986   -1604.9688    800.61924    -1380.294            0            0            0            0            0   -575.94443   -28.155298 
 1395000    292.29751    258.84287    858.88464    30204.229   -1324.9356    347.64205   -977.29355   -1549.4506    800.40434   -1324.9356            0            0            0            0            0   -575.88933   -27.832626 
 1400000    290.35214    155.71572    860.38863    30151.431   -1329.7306    345.32834   -984.40229   -1557.2357     803.5819   -1329.7306            0            0            0            0            0   -576.07684   -27.881364 
 1405000    275.30783    25.949482    867.51353    29903.797   -1366.8431     327.4355   -1039.4076   -1581.4677    790.48899   -1366.8431            0            0            0            0            0   -575.86435    -28.11225 
 1410000    291.64968    -95.52507    844.37463    30723.269   -1305.9003    346.87156   -959.02871   -1531.0982    800.79481   -1305.9003            0            0            0            0            0   -575.59689   -27.362422 
 1415000    281.42893    -74.42167    850.85402    30489.306   -1315.5301    334.71559   -980.81456   -1538.0393    798.26454   -1315.5301            0            0            0            0            0   -575.75537    -27.57239 
 1420000    300.57166    228.79043    847.23969    30619.374   -1290.4869    357.48286   -933.00403   -1520.0892    805.43643   -1290.4869            0            0            0            0            0    -575.8341   -27.455266 
 1425000    309.56416    136.81456    852.48352    30431.027   -1311.3037    368.17804    -943.1257   -1542.0929    806.68828   -1311.3037            0            0            0            0            0   -575.89909   -27.625195 
 1430000    297.06021    308.02828    852.23326    30439.963   -1303.5888    353.30654   -950.28228   -1531.8977    804.23171   -1303.5888            0            0            0            0            0    -575.9228   -27.617085 
 1435000    298.59608    160.15743    855.32476     30329.94   -1315.0814    355.13322   -959.94821   -1546.8906    807.48021   -1315.0814            0            0            0            0            0   -575.67102   -27.717267 
 1440000    297.36714    302.68235    864.91098    29993.779    -1345.019    353.67158   -991.34737   -1569.0168    799.83034    -1345.019            0            0            0            0            0   -575.83244   -28.027913 
 1445000    301.71529    827.47545    845.60099    30678.711   -1267.6791    358.84303   -908.83606   -1496.8267    804.99261   -1267.6791            0            0            0            0            0   -575.84496   -27.402163 
 1450000    295.31319   -261.03508     840.1426     30878.03   -1288.3607    351.22873   -937.13195   -1517.5178     804.8476   -1288.3607            0            0            0            0            0   -575.69052    -27.22528 
 1455000    311.56507   -203.78117    850.88304    30488.266    -1318.932     370.5578   -948.37423   -1541.9908    798.87728    -1318.932            0            0            0            0            0   -575.81854    -27.57333 
 1460000    294.75707    -166.8165    843.80023    30744.183   -1288.4964    350.56732    -937.9291    -1519.681    806.98353   -1288.4964            0            0            0            0            0   -575.79892   -27.343808 
 1465000    306.87944    -256.4099    855.08532    30338.433   -1331.9673    364.98497   -966.98237    -1558.487    802.18382   -1331.9673            0            0            0            0            0   -575.66418   -27.709508 
 1470000    317.78344    132.11643    838.27482     30946.83   -1272.2179    377.95357    -894.2643   -1495.9329    799.56769   -1272.2179            0            0            0            0            0   -575.85265   -27.164754 
 1475000    281.24522   -18.160325    853.87666    30381.377    -1320.421    334.49709    -985.9239   -1546.9356    802.01396    -1320.421            0            0            0            0            0   -575.49937    -27.67034 
 1480000    306.34936   -228.41945    840.81487    30853.342    -1298.498    364.35453    -934.1435   -1526.2895    803.62401    -1298.498            0            0            0            0            0   -575.83253   -27.247066 
 1485000    305.63544   -300.58911    851.23184    30475.773   -1313.8483    363.50544    -950.3429   -1539.5985    801.45963   -1313.8483            0            0            0            0            0   -575.70947   -27.584633 
 1490000    312.85315    191.57182    869.97857    29819.066      -1364.5    372.08977   -992.41025   -1586.7827    798.16103      -1364.5            0            0            0            0            0   -575.87836   -28.192131 
 1495000    280.60557   -198.82387    845.77659    30672.342   -1312.3268    333.73633   -978.59048   -1537.3324    801.05962   -1312.3268            0            0            0            0            0     -576.054   -27.407853 
 1500000    311.73581   -465.26753    848.94565    30557.844   -1313.3674    370.76087   -942.60655   -1545.2695    807.56328   -1313.3674            0            0            0            0            0   -575.66118   -27.510548 
 1505000    311.18088   -162.64152    856.00796    30305.733   -1333.1846    370.10087   -963.08378    -1557.737    800.61213   -1333.1846            0            0            0            0            0   -576.05982   -27.739406 
 1510000    297.77984    238.56943    870.59846    29797.834   -1368.9577    354.16243   -1014.7953   -1596.0384    803.05313   -1368.9577            0            0            0            0            0   -575.97247   -28.212219 
 1515000    311.76951   -89.168562    839.12064    30915.637   -1295.3002    370.80095   -924.49928   -1516.9873    797.58636   -1295.3002            0            0            0            0            0   -575.89929   -27.192163 
 1520000    330.41073   -190.21337    850.36582     30506.81   -1325.1416    392.97176   -932.16982   -1556.3255     806.9161   -1325.1416            0            0            0            0            0   -575.73217   -27.556569 
 1525000    326.66698     420.3427     862.0115    30094.666   -1336.5863    388.51916   -948.06718   -1558.8106     798.2534   -1336.5863            0            0            0            0            0   -576.02919   -27.933954 
 1530000    301.98216    344.34465    848.79169    30563.387    -1305.112    359.16043   -945.95156   -1530.0683    800.88635    -1305.112            0            0            0            0            0   -575.93007   -27.505559 
 1535000    327.71915   -166.32817    848.54966    30572.104   -1323.4639    389.77055   -933.69336   -1547.4164    799.82007   -1323.4639            0            0            0            0            0   -575.86762   -27.497716 
 1540000     309.9588   -98.740509    861.37913     30116.76   -1341.5064     368.6474   -972.85901   -1570.7265    804.67775   -1341.5064            0            0            0            0            0   -575.45771   -27.913462 
 1545000    297.74275    206.08778    845.81764    30670.853   -1294.9195    354.11832   -940.80113    -1523.629    804.28693   -1294.9195            0            0            0            0            0    -575.5774   -27.409183 
 1550000    316.50709    116.49419    854.21156    30369.466   -1315.3569    376.43556   -938.92136    -1544.157    804.46766   -1315.3569            0            0            0            0            0   -575.66754   -27.681193 
 1555000    297.47779    485.36025    856.29122    30295.708   -1318.9768    353.80319   -965.17359   -1538.6228    795.40143   -1318.9768            0            0            0            0            0   -575.75546   -27.748585 
 1560000    307.87986    96.780195    854.69347    30352.342   -1324.4696    366.17482   -958.29481   -1552.1276    803.31262   -1324.4696            0            0            0            0            0   -575.65467   -27.696809 
 1565000    302.00145    293.31117    865.82416    29962.145   -1344.0723    359.18337   -984.88897    -1569.614    801.25864   -1344.0723            0            0            0            0            0     -575.717   -28.057505 
 1570000    291.08993   -167.34316    846.32854    30652.338   -1312.8676    346.20583   -966.66176   -1539.2183    801.92658   -1312.8676            0            0            0            0            0   -575.57588   -27.425739 
 1575000    290.35954    67.433467    855.78808    30313.519   -1334.7744    345.33714   -989.43727   -1562.0459    803.12064   -1334.7744            0            0            0            0            0   -575.84911   -27.732281 
 1580000    287.40838   -356.05476    826.85987    31374.057   -1248.5194    341.82721   -906.69223   -1487.0785    814.51979   -1248.5194            0            0            0            0            0   -575.96069   -26.794846 
 1585000    314.18799    150.96651     847.2604    30618.625   -1312.2356    373.67735   -938.55825   -1535.0544    798.70737   -1312.2356            0            0            0            0            0   -575.88856   -27.455937 
 1590000    291.18492    -413.7851     845.3377    30688.267   -1328.4851    346.31881   -982.16629   -1550.4284    797.52706   -1328.4851            0            0            0            0            0   -575.58374    -27.39363 
 1595000    304.56857   -172.66046    836.63353    31007.541   -1272.7755    362.23656   -910.53894   -1503.4023    806.59058   -1272.7755            0            0            0            0            0   -575.96375   -27.111567 
[...]
 4600000    332.00565    277.51526    854.03237    30375.838   -1317.8922    394.86866   -923.02358   -1541.7321    799.59359   -1317.8922            0            0            0            0            0    -575.7537   -27.675386 
 4605000    307.22166    187.77834    853.37988    30399.063   -1313.1975      365.392   -947.80548   -1540.4527    802.91955   -1313.1975            0            0            0            0            0   -575.66432   -27.654242 
 4610000    313.27093   -230.76741    851.98084    30448.981   -1327.2815    372.58666    -954.6948   -1556.2255    804.65745   -1327.2815            0            0            0            0            0   -575.71345   -27.608905 
 4615000    293.64165    178.43178    853.28876    30402.309    -1314.352     349.2407   -965.11128   -1538.7903    799.96449    -1314.352            0            0            0            0            0   -575.52616   -27.651289 
 4620000    282.64065   -224.26633    851.08274    30481.112    -1330.266    336.15674   -994.10922   -1552.7798    798.37686    -1330.266            0            0            0            0            0   -575.86298   -27.579802 
 4625000    306.83587      -120.01    855.33972    30329.409   -1329.2786    364.93316   -964.34544   -1557.0162    803.52398   -1329.2786            0            0            0            0            0   -575.78641   -27.717751 
 4630000    279.24587   -390.10488    854.87616    30345.856   -1348.0387    332.11918   -1015.9196   -1566.0265    793.78854   -1348.0387            0            0            0            0            0   -575.80076    -27.70273 
 4635000    303.86517   -166.08202    837.97085    30958.056   -1279.1322    361.39998   -917.73221   -1509.2919    805.77092   -1279.1322            0            0            0            0            0   -575.61121   -27.154904 
 4640000    308.77922   -19.939414    857.05723    30268.631   -1325.7975    367.24446   -958.55303   -1553.9654    804.08305   -1325.7975            0            0            0            0            0   -575.91519   -27.773408 
 4645000    307.62001   -7.1109537    863.19488    30053.409   -1347.4316    365.86577   -981.56588   -1570.1836     798.2878   -1347.4316            0            0            0            0            0   -575.53581   -27.972302 
 4650000    316.34417    309.75261    861.99265    30095.325   -1341.4441    376.24179   -965.20228   -1556.2522    790.74545   -1341.4441            0            0            0            0            0   -575.93732   -27.933343 
 4655000    300.94949   -787.65987    841.86836    30814.733   -1317.1009    357.93223   -959.16866   -1548.6028    807.16165   -1317.1009            0            0            0            0            0   -575.65978   -27.281205 
 4660000    292.31672    586.43404    855.06952    30338.994   -1319.0319    347.66491   -971.36704   -1535.5447    792.36733   -1319.0319            0            0            0            0            0   -575.85458   -27.708995 
 4665000    308.43922   -447.82219    861.58282     30109.64   -1358.4696    366.84009   -991.62949   -1586.8354    804.05873   -1358.4696            0            0            0            0            0   -575.69296   -27.920062 
 4670000     320.7959    344.83088    860.34302     30153.03   -1335.0639    381.53643   -953.52744   -1557.4386    798.24233   -1335.0639            0            0            0            0            0   -575.86759   -27.879886 
 4675000    320.13223    354.84501    849.22127    30547.926   -1295.1196     380.7471   -914.37254   -1523.8658     804.6849   -1295.1196            0            0            0            0            0   -575.93873    -27.51948 
 4680000    325.88934   -15.912718    847.91043    30595.152   -1305.1343    387.59428   -917.53998    -1533.215    803.85095   -1305.1343            0            0            0            0            0   -575.77023   -27.477001 
 4685000    303.36488   -172.77518     859.7696     30173.14   -1338.5971    360.80497   -977.79218   -1558.7511    796.07386   -1338.5971            0            0            0            0            0   -575.91989   -27.861304 
 4690000    298.27148   -49.381721    854.22774     30368.89   -1327.9186    354.74716   -973.17146   -1549.7066    797.92498   -1327.9186            0            0            0            0            0   -576.13704   -27.681717 
 4695000    317.98575    383.95106    863.47144    30043.783   -1336.6454    378.19419    -958.4512   -1562.1493    801.36497   -1336.6454            0            0            0            0            0   -575.86108   -27.981264 
 4700000    313.02819    23.290001    867.23037    29913.561   -1356.3334    372.29795   -984.03541    -1579.231    798.69314   -1356.3334            0            0            0            0            0   -575.79548   -28.103075 
 4705000    305.77576    126.89699    853.22744    30404.494   -1322.8449    363.67232   -959.17256   -1543.1141    796.10431   -1322.8449            0            0            0            0            0   -575.83509   -27.649302 
 4710000    287.70238    23.055233    862.01904    30094.403    -1337.136    342.17687   -994.95908   -1570.3135    808.92531    -1337.136            0            0            0            0            0   -575.74773   -27.934198 
 4715000    281.66186     43.93636    872.22269    29742.346   -1367.2431    334.99263   -1032.2504   -1593.8154    802.25023   -1367.2431            0            0            0            0            0   -575.67791   -28.264853 
 4720000    278.84649    360.91506     844.6017    30715.009   -1288.7193    331.64418   -957.07512   -1515.4486    802.49143   -1288.7193            0            0            0            0            0    -575.7621    -27.36978 
 4725000    337.92789   -87.287284    839.69881    30894.349   -1293.9048    401.91225   -891.99259   -1520.1701    802.12417   -1293.9048            0            0            0            0            0   -575.85894   -27.210899 
 4730000    320.71056    44.576357      857.691    30246.264   -1331.5263    381.43493   -950.09134   -1560.3401     804.7739   -1331.5263            0            0            0            0            0   -575.96008   -27.793946 
 4735000    309.27473   -180.63325    842.74457    30782.694   -1295.4437     367.8338   -927.60991   -1527.8055    808.32465   -1295.4437            0            0            0            0            0    -575.9629   -27.309599 
 4740000     298.4362   -483.54034    841.98511     30810.46   -1308.7024    354.94306   -953.75933   -1533.6526    800.66123   -1308.7024            0            0            0            0            0   -575.71106   -27.284988 
 4745000      305.586    -41.45284    864.65823    30002.546    -1355.906    363.44664   -992.45939   -1582.3913    802.20251    -1355.906            0            0            0            0            0   -575.71718   -28.019723 
 4750000    277.23487   -8.2130643    856.06501    30303.713   -1312.7123    329.72741    -982.9849   -1547.2376    810.39253   -1312.7123            0            0            0            0            0   -575.86719   -27.741255 
 4755000    278.07918   -221.44052    850.18136    30513.429   -1320.9973    330.73159   -990.26569   -1547.7523    802.62041   -1320.9973            0            0            0            0            0   -575.86544   -27.550592 
 4760000    325.36992   -212.71356    860.76264     30138.33   -1352.3948    386.97651   -965.41832    -1574.524    797.89818   -1352.3948            0            0            0            0            0   -575.76906   -27.893484 
 4765000     308.7652    256.86429    848.42245    30576.688   -1301.0164    367.22779   -933.78863   -1529.7778    804.48304   -1301.0164            0            0            0            0            0   -575.72164   -27.493594 
 4770000    300.74357    54.950878    860.35875    30152.478   -1345.3941    357.68732    -987.7068   -1571.2297    801.64151   -1345.3941            0            0            0            0            0   -575.80596   -27.880396 
 4775000    313.94679   -497.83326     851.7935    30455.678   -1331.9814    373.39049   -958.59095   -1563.4571    807.26369   -1331.9814            0            0            0            0            0   -575.78799   -27.602834 
 4780000    312.95036   -176.38623    867.19453    29914.797   -1371.8167    372.20539   -999.61128   -1590.0787    793.96489   -1371.8167            0            0            0            0            0   -575.70291   -28.101913 
 4785000    307.54991   -192.53018    852.51218    30430.004   -1333.5364     365.7824   -967.75405   -1555.8346    798.04941   -1333.5364            0            0            0            0            0   -575.75128   -27.626123 
 4790000    304.45475    140.65373    854.20003    30369.876   -1311.9495    362.10119   -949.84835   -1542.7095    806.34474   -1311.9495            0            0            0            0            0   -575.58477   -27.680819 
 4795000    302.85776    229.08028    864.92584    29993.264   -1338.7941    360.20183   -978.59229   -1562.3634    799.46147   -1338.7941            0            0            0            0            0   -575.89221   -28.028395 
 4800000    314.19164    269.06689    865.35154    29978.509   -1336.9707     373.6817     -963.289    -1568.328    807.22689   -1336.9707            0            0            0            0            0    -575.8696    -28.04219 
 4805000    297.58933   -115.53655    861.77281    30103.002   -1348.5478    353.93585   -994.61197   -1575.4362    802.79754   -1348.5478            0            0            0            0            0   -575.90912   -27.926219 
 4810000    284.40035    917.48236    875.65317    29625.826   -1341.7299    338.24963   -1003.4803   -1566.1346     800.2542   -1341.7299            0            0            0            0            0   -575.84949    -28.37602 
 4815000    307.80023    -480.2578    842.43314    30794.074    -1313.889    366.08011   -947.80886   -1535.7939    797.41276    -1313.889            0            0            0            0            0   -575.50783   -27.299507 
 4820000     312.4822    121.32881    847.29591    30617.342     -1303.13    371.64858   -931.48141   -1530.2796    803.07987     -1303.13            0            0            0            0            0    -575.9303   -27.457087 
 4825000    304.19154   -55.711807    855.37487    30328.163   -1322.2052    361.78814   -960.41703   -1549.0867    802.79841   -1322.2052            0            0            0            0            0   -575.91687   -27.718891 
 4830000    292.62817   -90.367589    861.50848    30112.238   -1347.5597    348.03533   -999.52434    -1568.476    796.89546   -1347.5597            0            0            0            0            0   -575.97916   -27.917653 
 4835000    316.25625    417.35177    871.99793    29750.012   -1360.4116    376.13722   -984.27434   -1578.5108    794.16909   -1360.4116            0            0            0            0            0    -576.0698    -28.25757 
 4840000    315.85339   -310.24732    840.98007    30847.281    -1302.898    375.65809   -927.23989   -1526.7578    799.84757    -1302.898            0            0            0            0            0   -575.98776   -27.252419 
 4845000    322.04822   -15.864378    853.48073    30395.471   -1321.0728    383.02587   -938.04696   -1549.1366     803.9789   -1321.0728            0            0            0            0            0   -575.91509    -27.65751 
 4850000    307.49611   -156.38991    839.12615    30915.433   -1289.4072    365.71841   -923.68882    -1512.282    798.36179   -1289.4072            0            0            0            0            0   -575.48706   -27.192342 
 4855000    292.75278    91.703721    850.00089    30519.908   -1309.2431    348.18353   -961.05961   -1533.9605    800.69877   -1309.2431            0            0            0            0            0   -575.98144   -27.544744 
 4860000    310.01991    451.43035    863.41385    30045.787   -1330.2916    368.72008   -961.57156   -1555.1814    800.66064   -1330.2916            0            0            0            0            0   -575.77087   -27.979398 
 4865000    307.97815   -113.89226     852.8926    30416.431   -1323.4135    366.29172   -957.12179   -1546.5185    799.01437   -1323.4135            0            0            0            0            0   -575.90936   -27.638451 
 4870000    284.81825   -449.37604    842.43901     30793.86   -1304.6935    338.74665   -965.94681   -1531.2776    802.20952   -1304.6935            0            0            0            0            0   -575.62533   -27.299697 
 4875000    314.08609   -53.639682     846.3071    30653.115   -1314.7398    373.55616    -941.1836   -1540.2323    801.45343   -1314.7398            0            0            0            0            0    -575.9609   -27.425044 
 4880000    298.07877    187.31027    837.82173    30963.566   -1268.9148    354.51796   -914.39687      -1495.6    802.32322   -1268.9148            0            0            0            0            0   -575.63805   -27.150071 
 4885000    301.12793   -174.42105    845.38961    30686.382   -1297.1656    358.14446   -939.02116   -1524.6045    803.18442   -1297.1656            0            0            0            0            0   -575.74551   -27.395313 
 4890000    314.31133    148.98898    869.12306    29848.418   -1348.0386    373.82405   -974.21456   -1571.8634    799.59075   -1348.0386            0            0            0            0            0   -575.76599   -28.164408 
 4895000    293.26328   -323.30996    857.18775    30264.022   -1345.8977    348.79069   -997.10705   -1562.6775    792.76724   -1345.8977            0            0            0            0            0   -575.98752   -27.777638 
 4900000    306.11587    208.53324    859.23058    30192.069   -1340.1565    364.07683   -976.07969   -1561.9629    797.66723   -1340.1565            0            0            0            0            0   -575.86082   -27.843837 
 4905000    319.74673    343.05591    867.23646    29913.351   -1355.0516     380.2886   -974.76305   -1567.3766    787.95394   -1355.0516            0            0            0            0            0   -575.62903   -28.103272 
 4910000    297.75321   -111.88298    851.07839    30481.268   -1315.1722    354.13076   -961.04141   -1545.2231    805.86208   -1315.1722            0            0            0            0            0   -575.81112   -27.579661 
 4915000    302.76322   -157.00697    851.92799     30450.87   -1329.2971    360.08938   -969.20777    -1550.634    797.19165   -1329.2971            0            0            0            0            0   -575.85483   -27.607192 
 4920000    331.69338    109.95758    857.82925     30241.39   -1334.6369    394.49727   -940.13963   -1555.6184    796.60967   -1334.6369            0            0            0            0            0   -575.62818   -27.798426 
 4925000     290.2244   -604.02292    848.80926    30562.754   -1324.7782    345.17642    -979.6018    -1550.394    801.25412   -1324.7782            0            0            0            0            0   -575.63836   -27.506128 
 4930000    303.69062    57.001125    854.03701    30375.673   -1328.5633    361.19237   -967.37089   -1545.3356    792.61206   -1328.5633            0            0            0            0            0   -575.83969   -27.675536 
 4935000    303.29997   -301.33812    857.25595    30261.614   -1342.9686    360.72776   -982.24081    -1565.506    798.50115   -1342.9686            0            0            0            0            0   -575.96372   -27.779848 
 4940000    296.31889   -186.32273     839.8148    30890.083   -1292.2561    352.42486   -939.83122   -1519.9782    803.69868   -1292.2561            0            0            0            0            0   -575.97656   -27.214658 
 4945000    281.14374    233.21263    859.38875    30186.512   -1334.5753     334.3764   -1000.1989   -1555.6553    796.97311   -1334.5753            0            0            0            0            0   -575.89316   -27.848962 
 4950000    315.41027   -338.31607    864.40614    30011.296    -1366.284    375.13107   -991.15297   -1586.2451     795.4145    -1366.284            0            0            0            0            0   -575.45341   -28.011554 
 4955000    297.54844    127.92259    855.80681    30312.856   -1330.8724    353.88721   -976.98517   -1553.4614    798.38755   -1330.8724            0            0            0            0            0   -575.79849   -27.732888 
 4960000    315.72757    719.95341    844.85166    30705.921   -1285.2881    375.50845   -909.77961   -1504.7045    795.13013   -1285.2881            0            0            0            0            0   -575.71368    -27.37788 
 4965000    300.28049   -379.81127    833.03692    31141.415   -1271.0715    357.13656   -913.93498    -1502.966     807.6344   -1271.0715            0            0            0            0            0   -575.73989   -26.995017 
 4970000    321.30519   -136.35228     850.4468    30503.905   -1322.5546    382.14215   -940.41246   -1547.9037    801.02969   -1322.5546            0            0            0            0            0   -575.68058   -27.559194 
 4975000    297.98175     104.9913    851.55303    30464.279   -1297.8999    354.40257   -943.49736   -1537.5024    815.41468   -1297.8999            0            0            0            0            0   -575.81225   -27.595042 
 4980000     311.1453   -93.773166    859.29237    30189.898   -1341.4021    370.05855   -971.34358   -1566.2293    800.70914   -1341.4021            0            0            0            0            0   -575.88195   -27.845839 
 4985000    285.70304    -15.54307    868.27027    29877.735   -1362.0427    339.79897   -1022.2437   -1582.0838    795.78493   -1362.0427            0            0            0            0            0   -575.74376   -28.136773 
 4990000    275.53944   -573.87352    851.57049    30463.654   -1328.0811    327.71096   -1000.3701   -1561.9847    809.78273   -1328.0811            0            0            0            0            0   -575.87911   -27.595607 
 4995000    310.61377    41.745549    843.10353    30769.588   -1295.8159    369.42638   -926.38954    -1517.864    797.66178   -1295.8159            0            0            0            0            0   -575.61373   -27.321231 
 5000000    298.29885    233.45753    853.05597    30410.606   -1311.0077    354.77971   -956.22797   -1537.0064    801.87348   -1311.0077            0            0            0            0            0   -575.87475   -27.643745 
Loop time of 168937 on 1 procs for 5000000 steps with 2400 atoms

Performance: 2.557 ns/day, 9.385 hours/ns, 29.597 timesteps/s
100.0% CPU use with 1 MPI tasks x 1 OpenMP threads

MPI task timing breakdown:
Section |  min time  |  avg time  |  max time  |%varavg| %total
---------------------------------------------------------------
Pair    | 1.56e+05   | 1.56e+05   | 1.56e+05   |   0.0 | 92.34
Bond    | 9.0731     | 9.0731     | 9.0731     |   0.0 |  0.01
Kspace  | 4902.1     | 4902.1     | 4902.1     |   0.0 |  2.90
Neigh   | 4564       | 4564       | 4564       |   0.0 |  2.70
Comm    | 529.63     | 529.63     | 529.63     |   0.0 |  0.31
Output  | 0.06052    | 0.06052    | 0.06052    |   0.0 |  0.00
Modify  | 2799.5     | 2799.5     | 2799.5     |   0.0 |  1.66
Other   |            | 129.6      |            |       |  0.08

Nlocal:        2400.00 ave        2400 max        2400 min
Histogram: 1 0 0 0 0 0 0 0 0 0
Nghost:        18695.0 ave       18695 max       18695 min
Histogram: 1 0 0 0 0 0 0 0 0 0
Neighs:    1.83287e+06 ave 1.83287e+06 max 1.83287e+06 min
Histogram: 1 0 0 0 0 0 0 0 0 0

Total # of neighbors = 1832869
Ave neighs/atom = 763.69542
Ave special neighs/atom = 8.5000000
Neighbor list builds = 78867
Dangerous builds = 0
Total wall time: 56:30:24
